version 3
run Attack50_window3s_record-0-20250829-01:44:01-81005
attr configname Attack50_window3s_record
attr datetime 20250829-01:44:01
attr datetimef 20250829-014401
attr experiment Attack50_window3s_record
attr inifile run_record.ini
attr iterationvars ""
attr iterationvarsd ""
attr iterationvarsf ""
attr measurement ""
attr network ned.LightIoTNetwork
attr processid 81005
attr repetition 0
attr replication #0
attr resultdir results
attr runnumber 0
attr seedset 1
config output-scalar-file results/Attack50_window3s_record-rep1.sca
config output-vector-file results/Attack50_window3s_record-rep1.vec
config seed-set 1
config network ned.LightIoTNetwork
config output-scalar-file results/Attack50_window3s_record-0.sca
config output-vector-file results/Attack50_window3s_record-0.vec
config **.scalar-recording true
config **.vector-recording true
config **.result-recording-modes all
config LightIoTNetwork.numSensorNodes 50
config **.gateway.securityEnabled true
config **.gateway.hmacWindow 3s
config **.gateway.procDelay 1ms
config **.gateway.costForward_mJ 5
config **.gateway.costVerify_mJ 5
config **.gateway.batteryInit_mJ 5000
config **.fakeNode.enabled true
config **.fakeNode.attackMode 1
config **.fakeNode.replayInterval 2.5s
config sim-time-limit 10s
config rng-class cMersenneTwister
config num-rngs 1
config seed-set 123
config description "Secure Mode Simulation (includes all scenarios)"
config network ned.LightIoTNetwork
config ned-path .
config sim-time-limit 10s
config record-eventlog true
config cmdenv-express-mode false
config network ned.LightIoTNetwork
config sim-time-limit 10s
config output-scalar-file results/secure_output.sca
config output-vector-file results/secure_output.vec
config network LightIoTNetwork
config sim-time-limit 10s
config output-scalar-file results/nosecure_output.sca
config output-vector-file results/nosecure_output.vec
config network LightIoTNetwork
config sim-time-limit 10s
config output-scalar-file results/attack_output.sca
config output-vector-file results/attack_output.vec
config output-scalar-file results/Attack50_window3s_record-0.sca
config output-vector-file results/Attack50_window3s_record-0.vec
config **.scalar-recording true
config **.vector-recording true
config **.statistic-recording true
config **.result-recording-modes all
config rng-class cMersenneTwister
config num-rngs 1
config seed-set 123

vector 0 LightIoTNetwork.cloud EndToEndDelay_s ETV
0	3	0.50111438108	0.00100038108
0	6	0.528387595968	0.000999595968
0	11	0.593338595539	0.000999595539
0	12	0.593800810235	0.000999810235
0	15	0.629124447772	0.001000447772
0	18	0.641386936953	0.000999936953
0	21	0.647755892551	0.000999892551
0	24	0.687260211281	0.001000211281
0	27	0.699101483285	0.001000483285
0	30	0.705452248989	0.001000248989
0	33	0.730577220045	0.001000220045
0	36	0.737088976264	0.000999976264
0	39	0.80333256775	0.00099956775
0	44	0.814273512991	0.000999512991
0	45	0.814424184686	0.001000184686
0	48	0.84656072508	0.00099972508
0	51	0.888910740217	0.000999740217
0	56	0.897580726141	0.000999726141
0	57	0.897767468657	0.001000468657
0	62	0.918021998437	0.000999998437
0	63	0.918304804316	0.000999804316
0	66	0.920194519054	0.000999519054
0	69	0.931698570097	0.000999570097
0	72	0.944452893756	0.000999893756
0	75	0.95820480918	0.00099980918
0	78	1.019152548233	0.000999548233
0	81	1.025548162706	0.001000162706
0	84	1.035413907211	0.000999907211
0	87	1.039816731889	0.000999731889
0	90	1.059689827332	0.000999827332
0	95	1.170746040367	0.001000040367
0	96	1.17146750756	0.00099950756
0	99	1.18621950068	0.00099950068
0	102	1.193322616931	0.000999616931
0	105	1.21697051085	0.00099951085
0	108	1.221324489288	0.001000489288
0	111	1.279389235493	0.001000235493
0	114	1.301744566368	0.000999566368
0	117	1.303757503232	0.000999503232
0	120	1.347310918219	0.000999918219
0	123	1.366020245314	0.001000245314
0	126	1.377389146084	0.001000146084
0	129	1.379117437009	0.001000437009
0	132	1.414962022401	0.001000022401
0	135	1.4335573612	0.0010003612
0	138	1.436539072612	0.001000072612
0	141	1.440127794933	0.000999794933
0	144	1.445396437378	0.001000437378
0	147	1.469261571834	0.000999571834
0	150	1.498184808133	0.000999808133
0	153	1.500040515395	0.000999515395
0	156	1.50161176708	0.00099976708
0	159	1.559604531968	0.000999531968
0	162	1.566943763218	0.000999763218
0	165	1.575353021476	0.001000021476
0	168	1.583734443247	0.001000443247
0	171	1.625121616269	0.000999616269
0	174	1.659259268477	0.001000268477
0	177	1.721310500404	0.000999500404
0	180	1.733207091525	0.001000091525
0	183	1.749190323403	0.001000323403
0	186	1.762888712132	0.000999712132
0	189	1.796781760477	0.000999760477
0	192	1.828420918923	0.000999918923
0	195	1.837663386086	0.001000386086
0	198	1.8467288309	0.0009998309
0	201	1.853193782944	0.000999782944
0	204	1.855693397414	0.001000397414
0	207	1.881125125218	0.001000125218
0	210	1.905851419385	0.001000419385
0	213	1.922810204256	0.001000204256
0	216	1.93238242471	0.00100042471
0	219	1.935956148686	0.001000148686
0	222	1.940712578198	0.000999578198
0	225	1.957494703982	0.000999703982
0	228	1.988361464603	0.001000464603
0	231	2.011378028452	0.001000028452
0	234	2.064622728549	0.000999728549
0	237	2.085442769689	0.000999769689
0	240	2.145918560377	0.000999560377
0	243	2.149411415378	0.001000415378
0	246	2.157462044827	0.001000044827
0	249	2.2028731853	0.0010001853
0	252	2.206197410984	0.001000410984
0	255	2.218430338077	0.001000338077
0	258	2.221100638177	0.000999638177
0	261	2.222389768785	0.000999768785
0	264	2.223814145172	0.001000145172
0	267	2.279180355718	0.001000355718
0	270	2.2983518888	0.0009998888
0	273	2.336889623127	0.000999623127
0	276	2.359867950272	0.000999950272
0	279	2.364025889686	0.000999889686
0	282	2.371402151206	0.001000151206
0	285	2.373684851056	0.000999851056
0	288	2.394094141222	0.001000141222
0	291	2.402058199815	0.001000199815
0	294	2.416765116457	0.001000116457
0	297	2.459108246978	0.001000246978
0	300	2.474221448437	0.001000448437
0	303	2.509269385434	0.001000385434
0	306	2.514231395464	0.001000395464
0	311	2.536843774769	0.000999774769
0	312	2.537378873187	0.000999873187
0	315	2.584907638444	0.000999638444
0	320	2.642976798838	0.000999798838
0	321	2.643879600404	0.000999600404
0	326	2.657442697439	0.000999697439
0	327	2.657573900533	0.000999900533
0	330	2.738188325171	0.001000325171
0	333	2.757766633364	0.000999633364
0	336	2.762372729111	0.000999729111
0	339	2.77771223348	0.00100023348
0	342	2.805389579221	0.000999579221
0	345	2.819569424144	0.001000424144
0	348	2.826318305473	0.001000305473
0	351	2.827328209508	0.001000209508
0	354	2.864589938357	0.000999938357
0	359	2.895645069726	0.001000069726
0	362	2.915193621929	0.000999621929
0	367	2.928970517846	0.000999517846
0	368	2.929499902831	0.000999902831
0	371	2.956106622679	0.000999622679
0	374	2.971197317843	0.001000317843
0	377	2.974613420315	0.001000420315
0	380	2.9795926098	0.0009996098
0	383	3.019498130142	0.001000130142
0	386	3.025943775404	0.000999775404
0	389	3.058480560383	0.000999560383
0	392	3.128350040805	0.001000040805
0	395	3.130866409349	0.001000409349
0	398	3.138539791129	0.000999791129
0	401	3.153097842098	0.000999842098
0	404	3.190220974594	0.000999974594
0	407	3.209175232494	0.001000232494
0	410	3.241125152934	0.001000152934
0	413	3.276911053922	0.001000053922
0	416	3.287362890806	0.000999890806
0	419	3.299257419886	0.001000419886
0	422	3.31001958989	0.00099958989
0	425	3.345047261448	0.001000261448
0	428	3.353621926275	0.000999926275
0	431	3.355805450048	0.001000450048
0	434	3.37757506885	0.00100006885
0	437	3.379032271378	0.001000271378
0	440	3.396300483238	0.001000483238
0	443	3.407292287214	0.001000287214
0	446	3.452112024765	0.001000024765
0	449	3.455572399333	0.001000399333
0	452	3.466793185914	0.001000185914
0	455	3.50693204503	0.00100004503
0	458	3.509095979457	0.000999979457
0	461	3.53972916107	0.00100016107
0	464	3.582836876691	0.000999876691
0	469	3.599109350866	0.001000350866
0	470	3.599733111191	0.001000111191
0	473	3.671446896134	0.000999896134
0	476	3.693139219353	0.001000219353
0	479	3.702642294926	0.001000294926
0	482	3.787107170349	0.001000170349
0	485	3.790357242501	0.001000242501
0	490	3.79580755129	0.00099955129
0	491	3.796097973197	0.000999973197
0	494	3.807262112642	0.001000112642
0	497	3.814849543455	0.000999543455
0	500	3.81857551711	0.00099951711
0	503	3.855578066663	0.001000066663
0	506	3.866951413103	0.001000413103
0	509	3.87694725918	0.00100025918
0	512	3.879974820953	0.000999820953
0	515	3.915118140889	0.001000140889
0	518	3.973238962585	0.000999962585
0	521	3.97952818789	0.00100018789
0	524	3.994370865005	0.000999865005
0	527	4.01228090946	0.00099990946
0	530	4.019119944026	0.000999944026
0	533	4.032374988472	0.000999988472
0	536	4.050282919382	0.000999919382
0	539	4.051299234782	0.001000234782
0	542	4.064165327674	0.001000327674
0	545	4.065911307488	0.001000307488
0	550	4.180203401226	0.001000401226
0	551	4.18023730514	0.00100030514
0	554	4.188256704132	0.000999704132
0	557	4.228437643101	0.000999643101
0	562	4.256803074408	0.001000074408
0	563	4.257424985081	0.000999985081
0	566	4.26899025163	0.00100025163
0	569	4.275218077911	0.001000077911
0	572	4.296874548191	0.000999548191
0	575	4.33930437148	0.00100037148
0	578	4.365278443484	0.001000443484
0	581	4.386158363823	0.001000363823
0	584	4.39231096648	0.00099996648
0	587	4.397631274884	0.001000274884
0	590	4.410124449128	0.001000449128
0	593	4.432122166338	0.001000166338
0	596	4.434297829564	0.000999829564
0	599	4.441530760167	0.000999760167
0	602	4.461840115883	0.001000115883
0	605	4.475541008053	0.001000008053
0	608	4.51450760064	0.00099960064
0	611	4.522658831416	0.000999831416
0	614	4.571187063282	0.001000063282
0	617	4.640917855338	0.000999855338
0	620	4.660025295729	0.001000295729
0	623	4.665575057151	0.001000057151
0	626	4.698971799458	0.000999799458
0	629	4.749898183135	0.001000183135
0	632	4.755560809023	0.000999809023
0	635	4.774846248444	0.001000248444
0	638	4.783835779572	0.000999779572
0	641	4.79096355813	0.00099955813
0	644	4.811779193742	0.001000193742
0	647	4.814442923082	0.000999923082
0	650	4.856754900956	0.000999900956
0	653	4.865843054394	0.001000054394
0	656	4.881188061344	0.001000061344
0	659	4.893149559502	0.000999559502
0	662	4.900666112568	0.001000112568
0	665	4.90961314917	0.00100014917
0	668	4.950672124675	0.001000124675
0	671	4.963482954095	0.000999954095
0	674	4.966415983415	0.000999983415
0	677	4.99737179561	0.00099979561
0	680	5.025237289978	0.001000289978
0	683	5.028081153309	0.001000153309
0	686	5.058483576563	0.000999576563
0	689	5.067560814996	0.000999814996
0	692	5.080889957978	0.000999957978
0	695	5.115257938043	0.000999938043
0	698	5.121950966794	0.000999966794
0	701	5.138298492249	0.001000492249
0	704	5.193844444094	0.001000444094
0	707	5.200850574601	0.000999574601
0	710	5.209673749305	0.000999749305
0	713	5.230978639865	0.000999639865
0	716	5.261197360162	0.001000360162
0	719	5.270520640932	0.000999640932
0	722	5.272861612285	0.000999612285
0	725	5.297972264302	0.001000264302
0	728	5.29910802578	0.00100002578
0	731	5.307631425489	0.001000425489
0	734	5.31856702913	0.00100002913
0	737	5.352549212821	0.001000212821
0	740	5.359366663102	0.000999663102
0	747	5.399274326697	0.001000326697
0	748	5.399593330522	0.001000330522
0	751	5.421892700739	0.000999700739
0	754	5.469606329104	0.001000329104
0	757	5.506303419662	0.001000419662
0	760	5.525071995308	0.000999995308
0	763	5.58485995915	0.00099995915
0	766	5.596581623866	0.000999623866
0	769	5.612299562687	0.000999562687
0	772	5.616192416543	0.001000416543
0	775	5.639593241945	0.001000241945
0	778	5.654808535589	0.000999535589
0	781	5.668209471203	0.001000471203
0	784	5.76048435897	0.00100035897
0	787	5.772712662605	0.000999662605
0	790	5.774548865784	0.000999865784
0	795	5.788011571182	0.000999571182
0	796	5.788859580014	0.000999580014
0	799	5.823985237697	0.001000237697
0	802	5.847260967245	0.000999967245
0	805	5.851101559842	0.000999559842
0	808	5.877754928706	0.000999928706
0	811	5.928442048722	0.001000048722
0	814	5.941314595961	0.000999595961
0	817	5.943988112523	0.001000112523
0	820	5.953091469569	0.001000469569
0	823	5.982753760344	0.000999760344
0	826	5.986072572156	0.000999572156
0	829	6.012093162932	0.001000162932
0	832	6.049242012225	0.001000012225
0	835	6.053123342036	0.001000342036
0	838	6.078455747174	0.000999747174
0	841	6.092138005442	0.001000005442
0	844	6.097945660515	0.000999660515
0	847	6.100934419944	0.001000419944
0	850	6.105827983072	0.000999983072
0	853	6.107907904473	0.000999904473
0	856	6.110679382155	0.001000382155
0	859	6.131518271401	0.001000271401
0	862	6.133942439522	0.001000439522
0	865	6.170107735111	0.000999735111
0	868	6.194360436941	0.001000436941
0	871	6.244249893514	0.000999893514
0	874	6.259749099961	0.001000099961
0	877	6.302104526919	0.000999526919
0	880	6.318416705051	0.000999705051
0	883	6.330897214053	0.001000214053
0	886	6.347846623299	0.000999623299
0	891	6.353802615566	0.000999615566
0	892	6.354363956836	0.000999956836
0	895	6.361164825991	0.000999825991
0	898	6.371310058957	0.001000058957
0	901	6.384001185721	0.001000185721
0	904	6.430139081016	0.001000081016
0	907	6.465175314038	0.001000314038
0	910	6.55438704153	0.00100004153
0	915	6.556851064762	0.001000064762
0	916	6.55702291012	0.00099991012
0	919	6.567228593327	0.000999593327
0	922	6.598636902658	0.000999902658
0	925	6.605273684928	0.000999684928
0	928	6.6102017164	0.0009997164
0	931	6.618527261236	0.001000261236
0	934	6.705036368522	0.001000368522
0	937	6.713634761818	0.000999761818
0	940	6.761105176736	0.001000176736
0	943	6.798212016769	0.001000016769
0	946	6.80513136594	0.00100036594
0	949	6.809249530429	0.000999530429
0	952	6.875753910769	0.000999910769
0	955	6.889284148649	0.001000148649
0	958	6.903724161093	0.001000161093
0	961	6.923625385179	0.001000385179
0	964	6.941264965128	0.000999965128
0	967	6.947120688598	0.000999688598
0	970	6.951845412211	0.001000412211
0	973	6.976633160164	0.001000160164
0	976	7.001660900213	0.000999900213
0	981	7.009814026089	0.001000026089
0	982	7.010063714556	0.000999714556
0	985	7.01584460486	0.00099960486
0	988	7.019832412036	0.001000412036
0	993	7.107948403456	0.001000403456
0	994	7.108444489934	0.001000489934
0	997	7.115038191689	0.001000191689
0	1002	7.131158533017	0.000999533017
0	1003	7.131727584381	0.000999584381
0	1006	7.14400776529	0.00099976529
0	1009	7.155208331415	0.001000331415
0	1012	7.194293543765	0.000999543765
0	1015	7.208130724471	0.000999724471
0	1020	7.22262236264	0.00100036264
0	1021	7.223221581033	0.000999581033
0	1024	7.23530638751	0.00100038751
0	1027	7.252764426799	0.001000426799
0	1030	7.28300916429	0.00100016429
0	1033	7.308469816179	0.000999816179
0	1036	7.327131240791	0.001000240791
0	1039	7.330392192	0.001000192
0	1044	7.362922573718	0.000999573718
0	1045	7.363795668048	0.000999668048
0	1048	7.381499702646	0.000999702646
0	1051	7.416139936236	0.000999936236
0	1054	7.479205967136	0.000999967136
0	1057	7.493682048259	0.001000048259
0	1060	7.510006821781	0.000999821781
0	1063	7.511903869197	0.000999869197
0	1068	7.548464054591	0.001000054591
0	1069	7.54928156773	0.00099956773
0	1072	7.5610740002	0.0010000002
0	1075	7.58421855669	0.00099955669
0	1078	7.588233620184	0.000999620184
0	1081	7.628486448642	0.001000448642
0	1084	7.658122007431	0.001000007431
0	1087	7.703139979182	0.000999979182
0	1090	7.717295865644	0.000999865644
0	1093	7.730979870235	0.000999870235
0	1096	7.741690632677	0.000999632677
0	1099	7.789061207254	0.001000207254
0	1102	7.842686947505	0.000999947505
0	1107	7.85568247761	0.00100047761
0	1108	7.855787181505	0.001000181505
0	1111	7.86057688503	0.00099988503
0	1114	7.875773289961	0.001000289961
0	1117	7.890532268373	0.001000268373
0	1122	8.002215878222	0.000999878222
0	1125	8.014997775875	0.000999775875
0	1128	8.025130869656	0.000999869656
0	1131	8.029553076554	0.001000076554
0	1134	8.044350750767	0.000999750767
0	1137	8.061103844852	0.000999844852
0	1140	8.062835745861	0.000999745861
0	1143	8.07994169176	0.00099969176
0	1146	8.08377364713	0.00099964713
0	1149	8.104794005606	0.001000005606
0	1152	8.132606826373	0.000999826373
0	1155	8.156302803591	0.000999803591
0	1158	8.159755656378	0.000999656378
0	1161	8.177329912432	0.000999912432
0	1164	8.185799478389	0.001000478389
0	1167	8.191020958426	0.000999958426
0	1170	8.248729149647	0.001000149647
0	1173	8.255493016936	0.001000016936
0	1176	8.274003658047	0.000999658047
0	1179	8.290176086569	0.001000086569
0	1182	8.293831984953	0.000999984953
0	1185	8.304185534338	0.000999534338
0	1188	8.321700800977	0.000999800977
0	1191	8.376103671336	0.000999671336
0	1194	8.386278244643	0.001000244643
0	1197	8.395662191625	0.001000191625
0	1200	8.415062746101	0.000999746101
0	1203	8.450882109882	0.001000109882
0	1206	8.452605932741	0.000999932741
0	1209	8.47130296689	0.00099996689
0	1212	8.521337459722	0.001000459722
0	1215	8.566235163784	0.001000163784
0	1218	8.569241190911	0.001000190911
0	1221	8.578722069854	0.001000069854
0	1224	8.587388757965	0.000999757965
0	1227	8.58938724154	0.00100024154
0	1230	8.631585325696	0.001000325696
0	1235	8.635800195274	0.001000195274
0	1236	8.636530297691	0.001000297691
0	1239	8.65532014144	0.00100014144
0	1242	8.669488698919	0.000999698919
0	1245	8.738157963542	0.000999963542
0	1248	8.751600216538	0.001000216538
0	1251	8.77946152857	0.00099952857
0	1254	8.834252255805	0.001000255805
0	1257	8.854748412756	0.001000412756
0	1260	8.912373666022	0.000999666022
0	1263	8.91735022643	0.00100022643
0	1266	8.921967320725	0.001000320725
0	1269	8.927923232899	0.001000232899
0	1272	8.939533868642	0.000999868642
0	1275	8.95992200279	0.00100000279
0	1278	8.969616654864	0.000999654864
0	1281	8.976807838748	0.000999838748
0	1284	8.98985157695	0.00099957695
0	1287	9.00046852331	0.00099952331
0	1290	9.007336538866	0.000999538866
0	1293	9.036911788	0.000999788
0	1296	9.084906081085	0.001000081085
0	1299	9.094868385069	0.001000385069
0	1302	9.118578731384	0.000999731384
0	1305	9.148211859748	0.000999859748
0	1308	9.151732945604	0.000999945604
0	1311	9.157858002533	0.001000002533
0	1314	9.209242910123	0.000999910123
0	1317	9.211254336614	0.001000336614
0	1320	9.247900169784	0.001000169784
0	1325	9.249349698539	0.000999698539
0	1326	9.249909702059	0.000999702059
0	1329	9.251222572218	0.000999572218
0	1332	9.260244699496	0.000999699496
0	1335	9.269593363883	0.001000363883
0	1338	9.304800716298	0.000999716298
0	1341	9.384010077056	0.001000077056
0	1344	9.402537658972	0.000999658972
0	1347	9.40717746301	0.00100046301
0	1350	9.442219904182	0.000999904182
0	1353	9.448176382784	0.001000382784
0	1356	9.453241643518	0.000999643518
0	1359	9.494164060125	0.001000060125
0	1362	9.527019897126	0.000999897126
0	1365	9.537740295587	0.001000295587
0	1368	9.540627430076	0.001000430076
0	1371	9.628506350353	0.001000350353
0	1374	9.641313720749	0.000999720749
0	1379	9.645007588831	0.000999588831
0	1380	9.645491213514	0.001000213514
0	1383	9.656335647008	0.000999647008
0	1386	9.678758062166	0.001000062166
0	1389	9.707415665801	0.000999665801
0	1392	9.712663788092	0.000999788092
0	1395	9.728945556258	0.000999556258
0	1398	9.780053644417	0.000999644417
0	1401	9.791396026662	0.001000026662
0	1404	9.794875055155	0.001000055155
0	1407	9.811320934188	0.000999934188
0	1410	9.842640523403	0.000999523403
0	1413	9.890645398968	0.001000398968
0	1416	9.910424370481	0.001000370481
0	1419	9.920486485748	0.001000485748
0	1422	9.941789382392	0.001000382392
0	1425	9.950208563286	0.000999563286
0	1428	9.976586847681	0.000999847681
0	1431	9.988312936271	0.000999936271

