version 3
run Attack50_window3s_record-0-20250819-01:38:35-5078
attr configname Attack50_window3s_record
attr datetime 20250819-01:38:35
attr datetimef 20250819-013835
attr experiment Attack50_window3s_record
attr inifile run_record.ini
attr iterationvars ""
attr iterationvarsd ""
attr iterationvarsf ""
attr measurement ""
attr network ned.LightIoTNetwork
attr processid 5078
attr repetition 0
attr replication #0
attr resultdir results
attr runnumber 0
attr seedset 123
config network ned.LightIoTNetwork
config output-scalar-file results/Attack50_window3s_record-0.sca
config output-vector-file results/Attack50_window3s_record-0.vec
config **.scalar-recording true
config **.vector-recording true
config **.result-recording-modes all
config LightIoTNetwork.numSensorNodes 50
config **.gateway.securityEnabled true
config **.gateway.hmacWindow 3s
config **.gateway.procDelay 1ms
config **.gateway.costForward_mJ 5
config **.gateway.costVerify_mJ 5
config **.gateway.batteryInit_mJ 5000
config **.fakeNode.enabled true
config **.fakeNode.attackMode 1
config **.fakeNode.replayInterval 2.5s
config sim-time-limit 10s
config rng-class cMersenneTwister
config num-rngs 1
config seed-set 123
config description "Secure Mode Simulation (includes all scenarios)"
config network ned.LightIoTNetwork
config ned-path .:ned
config sim-time-limit 10s
config record-eventlog true
config cmdenv-express-mode false
config network ned.LightIoTNetwork
config sim-time-limit 10s
config output-scalar-file results/secure_output.sca
config output-vector-file results/secure_output.vec
config network LightIoTNetwork
config sim-time-limit 10s
config output-scalar-file results/nosecure_output.sca
config output-vector-file results/nosecure_output.vec
config network LightIoTNetwork
config sim-time-limit 10s
config output-scalar-file results/attack_output.sca
config output-vector-file results/attack_output.vec
config output-scalar-file results/Attack50_window3s_record-0.sca
config output-vector-file results/Attack50_window3s_record-0.vec
config **.scalar-recording true
config **.vector-recording true
config output-scalar-file results/Attack50_window3s_record-0.sca
config output-vector-file results/Attack50_window3s_record-0.vec
config **.scalar-recording true
config **.vector-recording true
config rng-class cMersenneTwister
config num-rngs 1
config seed-set 123

vector 0 LightIoTNetwork.cloud EndToEndDelay_s ETV
0	3	0.560677898185	0.001
0	6	0.58472648526	0.001
0	9	0.640950763201	0.001
0	12	0.676451755989	0.001
0	15	0.683491732528	0.001
0	18	0.727851454936	0.001
0	21	0.745759279769	0.001
0	24	0.787139338743	0.001
0	27	0.798780498164	0.001
0	30	0.825150895933	0.001
0	33	0.844178014737	0.001
0	36	0.858728919946	0.001
0	39	0.893117517302	0.001
0	42	0.899044250906	0.001
0	45	0.902017554104	0.001
0	48	0.911924367839	0.001
0	51	0.918209947016	0.001
0	54	0.924106460599	0.001
0	59	0.928863489604	0.001
0	60	0.929470924962	0.001
0	63	0.93957224728	0.001
0	66	0.941257177455	0.001
0	69	0.981931907427	0.001
0	74	0.992118932609	0.001
0	75	0.993084773025	0.001
0	80	1.032551370164	0.001
0	81	1.032827588566	0.001
0	84	1.052314765122	0.001
0	87	1.080694297398	0.001
0	90	1.094902397901	0.001
0	93	1.112023514532	0.001
0	96	1.128317003906	0.001
0	99	1.132792020286	0.001
0	102	1.135400961921	0.001
0	105	1.185829734266	0.001
0	108	1.191884851385	0.001
0	111	1.195755175151	0.001
0	114	1.197469187271	0.001
0	119	1.213330177892	0.001
0	120	1.213955321418	0.001
0	125	1.220150308752	0.001
0	126	1.22046897055	0.001
0	129	1.223443384118	0.001
0	132	1.22545532144	0.001
0	135	1.230049708461	0.001
0	138	1.238995401956	0.001
0	141	1.241296386881	0.001
0	144	1.281027760426	0.001
0	147	1.350431794137	0.001
0	150	1.481764200445	0.001
0	153	1.557084216852	0.001
0	156	1.591622160118	0.001
0	159	1.615711049618	0.001
0	162	1.622104403073	0.001
0	165	1.63039430722	0.001
0	168	1.686594262788	0.001
0	171	1.74357188323	0.001
0	174	1.798713908181	0.001
0	177	1.813334562745	0.001
0	180	1.836798857826	0.001
0	185	1.843358336691	0.001
0	186	1.844280786137	0.001
0	189	1.84546915444	0.001
0	192	1.849026395775	0.001
0	195	1.851979688205	0.001
0	198	1.885216803406	0.001
0	201	1.891923168417	0.001
0	204	1.899578902102	0.001
0	207	1.909272519149	0.001
0	210	1.910661387605	0.001
0	213	1.926527438242	0.001
0	216	2.017545387265	0.001
0	221	2.031765420897	0.001
0	222	2.032007648306	0.001
0	225	2.035180263803	0.001
0	228	2.051440683216	0.001
0	231	2.052682099886	0.001
0	234	2.07079676555	0.001
0	237	2.073547908221	0.001
0	240	2.093301910883	0.001
0	243	2.098858058196	0.001
0	246	2.119692988297	0.001
0	249	2.121383374439	0.001
0	252	2.125709654134	0.001
0	255	2.141936098527	0.001
0	258	2.164046394661	0.001
0	261	2.174850093689	0.001
0	264	2.176616894755	0.001
0	267	2.185291492356	0.001
0	270	2.217075823176	0.001
0	273	2.222541741397	0.001
0	276	2.228668519365	0.001
0	279	2.232407756871	0.001
0	282	2.242892426321	0.001
0	285	2.270731017994	0.001
0	288	2.296669913292	0.001
0	291	2.30360666539	0.001
0	294	2.322567278448	0.001
0	297	2.323958909208	2.001
0	300	2.400740393833	0.001
0	303	2.405889933718	0.001
0	306	2.553262641769	0.001
0	309	2.586934894159	0.001
0	312	2.64271642838	0.001
0	315	2.656890319869	0.001
0	318	2.67525673129	0.001
0	321	2.695607863994	0.001
0	324	2.715286032971	0.001
0	327	2.730255531542	0.001
0	330	2.76726667534	0.001
0	333	2.797623016241	0.001
0	336	2.811517533729	0.001
0	339	2.827685228106	0.001
0	342	2.845483932992	0.001
0	345	2.880183699004	0.001
0	348	2.883323555742	0.001
0	351	2.885286547778	0.001
0	354	2.900622101849	0.001
0	357	2.901663370081	0.001
0	360	2.925853545008	0.001
0	363	2.944524144217	0.001
0	366	2.960308171878	0.001
0	369	2.989283196604	0.001
0	372	3.008622440672	0.001
0	375	3.009940909151	0.001
0	378	3.03473269667	0.001
0	381	3.056988348462	0.001
0	384	3.058694502268	0.001
0	387	3.061851346888	0.001
0	390	3.074442929937	0.001
0	393	3.078003355138	0.001
0	396	3.086378493741	0.001
0	399	3.099175979871	0.001
0	402	3.102890986599	0.001
0	405	3.127751113171	0.001
0	408	3.136218326514	0.001
0	411	3.139265253092	0.001
0	414	3.164427745039	0.001
0	417	3.172429555537	0.001
0	420	3.1737133343	0.001
0	423	3.191108287194	0.001
0	426	3.199605194128	0.001
0	431	3.225793119775	0.001
0	432	3.226717115169	0.001
0	435	3.268342219501	0.001
0	438	3.305733885033	0.001
0	441	3.341353183588	0.001
0	444	3.354542378033	0.001
0	447	3.396149905468	0.001
0	450	3.402464649383	0.001
0	453	3.42477630989	0.001
0	456	3.515239343023	0.001
0	459	3.588682249304	0.001
0	462	3.598291932255	0.001
0	465	3.626221966579	0.001
0	468	3.631415371433	0.001
0	471	3.644157292297	0.001
0	474	3.688975135166	0.001
0	477	3.76137630136	0.001
0	480	3.768053372087	0.001
0	483	3.769361437507	0.001
0	486	3.813848476973	0.001
0	489	3.82699875792	0.001
0	492	3.863076662946	0.001
0	495	3.866079285857	0.001
0	498	3.873242914094	0.001
0	501	3.891060349973	0.001
0	504	3.918659202497	0.001
0	507	3.927437811832	0.001
0	510	3.960762710659	0.001
0	513	3.980992993875	0.001
0	518	3.986689868127	0.001
0	519	3.987211322807	0.001
0	522	3.996848107245	0.001
0	525	4.002586531988	0.001
0	528	4.003717914898	0.001
0	531	4.01285814389	0.001
0	534	4.017941963137	0.001
0	537	4.034729444677	0.001
0	540	4.041488483012	0.001
0	543	4.075957348593	0.001
0	546	4.082318714843	0.001
0	549	4.084275350277	0.001
0	552	4.097722305473	0.001
0	555	4.098934085969	0.001
0	558	4.118995120725	0.001
0	561	4.156018609809	0.001
0	564	4.163822830257	0.001
0	567	4.185234636463	0.001
0	572	4.191064939717	0.001
0	573	4.191774816322	0.001
0	576	4.198247677389	0.001
0	579	4.229448646701	0.001
0	582	4.248117477282	0.001
0	585	4.27461542154	0.001
0	588	4.289524363516	0.001
0	591	4.328115430637	0.001
0	594	4.358287417678	0.001
0	597	4.36484110842	0.001
0	600	4.421124089345	0.001
0	603	4.427401941291	0.001
0	606	4.477165102981	0.001
0	609	4.547403663512	0.001
0	612	4.570336282508	0.001
0	615	4.579464872064	0.001
0	618	4.608700677123	0.001
0	621	4.622007158887	0.001
0	624	4.72577242234	0.001
0	627	4.752482542325	0.001
0	630	4.760101057053	0.001
0	633	4.765936137199	0.001
0	636	4.801674305018	0.001
0	639	4.82181516399	0.001
0	644	4.876730754063	0.001
0	647	4.896300003095	0.001
0	650	4.904405373682	0.001
0	655	4.929729595198	0.001
0	656	4.93055667735	0.001
0	661	4.936802897858	0.001
0	662	4.93682841577	0.001
0	665	4.94435057335	0.001
0	668	4.958064257702	0.001
0	671	4.961950847436	0.001
0	674	4.987316406075	0.001
0	677	4.996347800246	0.001
0	680	5.002463613193	0.001
0	683	5.037180283269	0.001
0	686	5.048515203199	0.001
0	689	5.056556222191	0.001
0	692	5.070562538294	0.001
0	695	5.078680671774	0.001
0	698	5.080834920355	0.001
0	703	5.086431363667	0.001
0	704	5.086550601036	0.001
0	707	5.099985643685	0.001
0	710	5.103240697621	0.001
0	713	5.113848709757	0.001
0	716	5.168095954669	0.001
0	719	5.170975819298	0.001
0	722	5.222134439809	0.001
0	725	5.233113304268	0.001
0	728	5.247799354068	0.001
0	731	5.256336285894	0.001
0	734	5.272843131586	0.001
0	737	5.279335043136	0.001
0	740	5.282903719436	0.001
0	743	5.314751609484	0.001
0	746	5.332117461483	0.001
0	749	5.380299393342	0.001
0	752	5.445223383582	0.001
0	755	5.489861300517	0.001
0	758	5.498912075417	0.001
0	761	5.524128118225	0.001
0	764	5.592336681088	0.001
0	767	5.612224412639	0.001
0	770	5.613374537997	0.001
0	773	5.683400896307	0.001
0	776	5.696180787983	0.001
0	779	5.731356552638	0.001
0	782	5.754028967836	0.001
0	785	5.786656827828	0.001
0	788	5.810308443359	0.001
0	791	5.812150743672	0.001
0	794	5.860223731468	0.001
0	797	5.871156565588	0.001
0	800	5.876298110023	0.001
0	803	5.888387064425	0.001
0	806	5.900439662974	0.001
0	809	5.916439716261	0.001
0	812	5.937256372091	0.001
0	815	5.94762030302	0.001
0	818	5.986345197097	0.001
0	821	5.997346013993	0.001
0	826	6.001901038012	0.001
0	829	6.002069442416	0.001
0	830	6.002902487595	0.001
0	833	6.010444093611	0.001
0	836	6.02730758076	0.001
0	839	6.033507219119	0.001
0	842	6.045803517778	0.001
0	845	6.051606221846	0.001
0	848	6.066108937491	0.001
0	853	6.079312556492	0.001
0	854	6.079852543048	0.001
0	857	6.127649456379	0.001
0	860	6.130778830475	0.001
0	863	6.1356466057	0.001
0	866	6.150017584325	0.001
0	869	6.162458218935	0.001
0	872	6.185502492473	0.001
0	875	6.189050850341	0.001
0	878	6.242573725267	0.001
0	881	6.266262747649	0.001
0	884	6.274728984502	0.001
0	889	6.283286046772	0.001
0	890	6.283818501954	0.001
0	893	6.304708715922	0.001
0	896	6.356491088284	0.001
0	899	6.421525804815	0.001
0	902	6.4230488769	0.001
0	905	6.448148062521	0.001
0	908	6.560388961829	0.001
0	911	6.569531736033	0.001
0	914	6.580327705687	0.001
0	917	6.644694845727	0.001
0	920	6.650611909594	0.001
0	923	6.654544509317	0.001
0	926	6.70893526303	0.001
0	929	6.735066004398	0.001
0	932	6.748343187221	0.001
0	935	6.764408846175	0.001
0	938	6.794703512986	0.001
0	941	6.845125233916	0.001
0	944	6.857858628197	0.001
0	947	6.873475457518	0.001
0	950	6.87677203894	0.001
0	953	6.88111062718	0.001
0	956	6.895951156295	0.001
0	959	6.904505291324	0.001
0	964	6.927424925076	0.001
0	965	6.927649317844	0.001
0	968	6.935263179964	0.001
0	971	6.94872792398	0.001
0	974	6.956084729195	0.001
0	977	7.014155547017	0.001
0	980	7.015197842591	0.001
0	983	7.022839306362	0.001
0	986	7.042102829763	0.001
0	989	7.046725833159	0.001
0	994	7.050041436147	0.001
0	995	7.050365233025	0.001
0	998	7.061601034016	0.001
0	1001	7.062612740718	0.001
0	1004	7.081424630364	0.001
0	1007	7.103576979436	0.001
0	1010	7.114574963017	0.001
0	1013	7.153225992084	0.001
0	1016	7.177270984531	0.001
0	1019	7.182092539616	0.001
0	1022	7.185790005721	0.001
0	1025	7.213164772582	0.001
0	1028	7.224992846486	0.001
0	1031	7.230702319995	0.001
0	1034	7.239379648421	0.001
0	1037	7.311497607385	0.001
0	1042	7.35516386216	0.001
0	1045	7.369009537783	0.001
0	1048	7.373874303348	0.001
0	1051	7.37977782816	0.001
0	1054	7.476314612686	0.001
0	1057	7.485887754079	0.001
0	1060	7.503500136151	0.001
0	1063	7.507943199085	0.001
0	1066	7.57237796022	0.001
0	1069	7.577407071015	0.001
0	1072	7.62524895959	0.001
0	1075	7.634420252287	0.001
0	1078	7.690324636245	0.001
0	1081	7.719927375971	0.001
0	1084	7.769573944084	0.001
0	1087	7.776852522673	0.001
0	1090	7.781324649763	0.001
0	1093	7.813755357801	0.001
0	1096	7.822163660056	0.001
0	1099	7.850213199364	0.001
0	1102	7.856724641635	0.001
0	1105	7.870095573249	0.001
0	1108	7.875920132756	0.001
0	1111	7.89810280546	0.001
0	1114	7.943439497402	0.001
0	1117	7.987189912912	0.001
0	1120	7.989236959232	0.001
0	1123	7.991584379062	0.001
0	1126	8.003518824954	0.001
0	1129	8.007734851329	0.001
0	1132	8.011850656871	0.001
0	1135	8.01924342385	0.001
0	1138	8.024474092455	0.001
0	1143	8.034220773704	0.001
0	1144	8.034824537415	0.001
0	1147	8.055105092493	0.001
0	1150	8.063160925334	0.001
0	1153	8.07937414844	0.001
0	1156	8.087956484523	0.001
0	1159	8.106164253107	0.001
0	1162	8.109225735834	0.001
0	1165	8.137141906258	0.001
0	1168	8.152722608181	0.001
0	1171	8.186902781133	0.001
0	1174	8.204268320625	0.001
0	1177	8.218297364072	0.001
0	1180	8.240344843897	0.001
0	1183	8.243838291077	0.001
0	1186	8.274111644527	0.001
0	1189	8.30412869884	0.001
0	1192	8.333459733217	0.001
0	1195	8.360453738203	0.001
0	1198	8.363592137976	0.001
0	1201	8.414295177417	0.001
0	1206	8.421298088109	0.001
0	1207	8.421602112637	0.001
0	1210	8.484002987085	0.001
0	1213	8.49441494008	0.001
0	1216	8.569454141821	0.001
0	1219	8.608080044409	0.001
0	1222	8.642852442036	0.001
0	1227	8.733637517433	0.001
0	1228	8.734282410168	0.001
0	1231	8.740559387043	0.001
0	1234	8.771837421855	0.001
0	1237	8.773806844021	0.001
0	1240	8.782956479606	0.001
0	1243	8.791607344359	0.001
0	1246	8.807922231335	0.001
0	1249	8.855325187812	0.001
0	1252	8.865424888323	0.001
0	1255	8.890180014608	0.001
0	1258	8.902329146606	0.001
0	1261	8.908141149975	0.001
0	1264	8.927150393859	0.001
0	1267	8.945587536156	0.001
0	1270	8.964564646105	0.001
0	1273	8.971792202046	0.001
0	1276	8.980673041916	0.001
0	1279	8.992908390262	0.001
0	1282	8.995327697577	0.001
0	1287	9.015699916868	0.001
0	1288	9.016534619616	0.001
0	1291	9.045649773231	0.001
0	1294	9.051310347603	0.001
0	1297	9.060380150493	0.001
0	1300	9.070428032777	0.001
0	1303	9.076880857604	0.001
0	1306	9.108546522608	0.001
0	1311	9.124283531517	0.001
0	1312	9.12448167859	0.001
0	1315	9.140268372672	0.001
0	1318	9.162176139676	0.001
0	1323	9.201755577301	0.001
0	1324	9.202254566433	0.001
0	1327	9.206248505527	0.001
0	1330	9.211393555788	0.001
0	1333	9.251448661204	0.001
0	1336	9.267928257468	0.001
0	1339	9.273350902809	0.001
0	1342	9.339861380938	0.001
0	1345	9.341645192562	0.001
0	1348	9.400389976355	0.001
0	1351	9.427263130875	0.001
0	1354	9.443820204098	0.001
0	1357	9.487145484588	0.001
0	1360	9.497974670421	0.001
0	1363	9.50904783958	0.001
0	1366	9.532482745706	0.001
0	1369	9.608523311021	0.001
0	1372	9.64115456969	0.001
0	1375	9.650027295643	0.001
0	1378	9.69637130692	0.001
0	1381	9.698361513274	0.001
0	1384	9.707218377222	0.001
0	1387	9.710713272424	0.001
0	1390	9.72214397264	0.001
0	1393	9.77361171583	0.001
0	1396	9.797165217971	0.001
0	1399	9.798310819198	0.001
0	1402	9.802975169126	0.001
0	1407	9.854232115228	0.001
0	1410	9.862432488264	0.001
0	1413	9.909028476499	0.001
0	1416	9.932181569397	0.001
0	1419	9.93906852419	0.001
0	1422	9.948667075508	0.001
0	1425	9.951738232303	0.001
0	1428	9.961489232	0.001
0	1431	9.987136807222	0.001
0	1434	9.993869400001	0.001

