version 3
run Attack5_record-0-20250829-01:43:58-79969
attr configname Attack5_record
attr datetime 20250829-01:43:58
attr datetimef 20250829-014358
attr experiment Attack5_record
attr inifile run_record.ini
attr iterationvars ""
attr iterationvarsd ""
attr iterationvarsf ""
attr measurement ""
attr network ned.LightIoTNetwork
attr processid 79969
attr repetition 0
attr replication #0
attr resultdir results
attr runnumber 0
attr seedset 1
config output-scalar-file results/Attack5_record-rep1.sca
config output-vector-file results/Attack5_record-rep1.vec
config seed-set 1
config network ned.LightIoTNetwork
config output-scalar-file results/Attack5_record-0.sca
config output-vector-file results/Attack5_record-0.vec
config **.scalar-recording true
config **.vector-recording true
config **.result-recording-modes all
config LightIoTNetwork.numSensorNodes 5
config **.fakeNode.enabled true
config **.fakeNode.attackMode 1
config **.fakeNode.replayInterval 2.5s
config **.gateway.securityEnabled true
config **.gateway.hmacWindow 1s
config **.gateway.procDelay 1ms
config **.gateway.costForward_mJ 5
config **.gateway.costVerify_mJ 5
config **.gateway.batteryInit_mJ 5000
config sim-time-limit 10s
config description "Secure Mode Simulation (includes all scenarios)"
config network ned.LightIoTNetwork
config ned-path .
config sim-time-limit 10s
config record-eventlog true
config cmdenv-express-mode false
config network ned.LightIoTNetwork
config sim-time-limit 10s
config output-scalar-file results/secure_output.sca
config output-vector-file results/secure_output.vec
config network LightIoTNetwork
config sim-time-limit 10s
config output-scalar-file results/nosecure_output.sca
config output-vector-file results/nosecure_output.vec
config network LightIoTNetwork
config sim-time-limit 10s
config output-scalar-file results/attack_output.sca
config output-vector-file results/attack_output.vec
config output-scalar-file results/Attack5_record-0.sca
config output-vector-file results/Attack5_record-0.vec
config **.scalar-recording true
config **.vector-recording true
config **.statistic-recording true
config **.result-recording-modes all
config rng-class cMersenneTwister
config num-rngs 1
config seed-set 123

vector 0 LightIoTNetwork.cloud EndToEndDelay_s ETV
0	3	0.50111438108	0.00100038108
0	6	0.918021998437	0.000999998437
0	9	1.221324489288	0.001000489288
0	12	1.4335573612	0.0010003612
0	15	1.46158089463	0.00099989463
0	18	1.498184808133	0.000999808133
0	21	2.017830101516	0.001000101516
0	26	2.150675667798	0.000999667798
0	31	2.380048613738	0.000999613738
0	32	2.380775156453	0.001000156453
0	35	2.477500953361	0.000999953361
0	38	2.955082143772	0.001000143772
0	41	3.128257815841	0.000999815841
0	44	3.349160758754	0.000999758754
0	47	3.414724364526	0.001000364526
0	50	3.456854447092	0.001000447092
0	53	4.042189958294	0.000999958294
0	56	4.136021162219	0.001000162219
0	59	4.398563268337	0.001000268337
0	62	4.418422942398	0.000999942398
0	65	4.41950914969	0.00100014969
0	70	5.07923385843	0.00099985843
0	73	5.14093079476	0.00099979476
0	76	5.339453718135	0.000999718135
0	79	5.407113521149	0.000999521149
0	82	5.495132637092	0.000999637092
0	85	6.025149302439	0.001000302439
0	88	6.046408313954	0.001000313954
0	91	6.346336499577	0.001000499577
0	94	6.441207022661	0.001000022661
0	97	6.577925041572	0.001000041572
0	100	7.008610263302	0.001000263302
0	103	7.03784927579	0.00100027579
0	108	7.358074465043	0.001000465043
0	111	7.42734673668	0.00099973668
0	114	7.506002428963	0.001000428963
0	117	7.977469572447	0.000999572447
0	120	8.096435822289	0.000999822289
0	123	8.413752312142	0.001000312142
0	126	8.487495649954	0.000999649954
0	129	8.549196531133	0.000999531133
0	132	9.071121886814	0.000999886814
0	135	9.156987322935	0.001000322935
0	138	9.376437149079	0.001000149079
0	141	9.406055812001	0.000999812001
0	144	9.587661054519	0.001000054519

