version 3
run NoSec50_record-0-20250829-01:43:58-79801
attr configname NoSec50_record
attr datetime 20250829-01:43:58
attr datetimef 20250829-014358
attr experiment NoSec50_record
attr inifile run_record.ini
attr iterationvars ""
attr iterationvarsd ""
attr iterationvarsf ""
attr measurement ""
attr network ned.LightIoTNetwork
attr processid 79801
attr repetition 0
attr replication #0
attr resultdir results
attr runnumber 0
attr seedset 2
config output-scalar-file results/NoSec50_record-rep2.sca
config output-vector-file results/NoSec50_record-rep2.vec
config seed-set 2
config network ned.LightIoTNetwork
config output-scalar-file results/NoSec50_record-0.sca
config output-vector-file results/NoSec50_record-0.vec
config **.scalar-recording true
config **.vector-recording true
config **.result-recording-modes all
config LightIoTNetwork.numSensorNodes 50
config **.fakeNode.enabled false
config **.gateway.securityEnabled false
config **.gateway.procDelay 0s
config **.gateway.costForward_mJ 5
config **.gateway.costVerify_mJ 0
config **.gateway.batteryInit_mJ 5000
config sim-time-limit 10s
config description "Secure Mode Simulation (includes all scenarios)"
config network ned.LightIoTNetwork
config ned-path .
config sim-time-limit 10s
config record-eventlog true
config cmdenv-express-mode false
config network ned.LightIoTNetwork
config sim-time-limit 10s
config output-scalar-file results/secure_output.sca
config output-vector-file results/secure_output.vec
config network LightIoTNetwork
config sim-time-limit 10s
config output-scalar-file results/nosecure_output.sca
config output-vector-file results/nosecure_output.vec
config network LightIoTNetwork
config sim-time-limit 10s
config output-scalar-file results/attack_output.sca
config output-vector-file results/attack_output.vec
config output-scalar-file results/NoSec50_record-0.sca
config output-vector-file results/NoSec50_record-0.vec
config **.scalar-recording true
config **.vector-recording true
config **.statistic-recording true
config **.result-recording-modes all
config rng-class cMersenneTwister
config num-rngs 1
config seed-set 123

vector 0 LightIoTNetwork.cloud EndToEndDelay_s ETV
0	3	0.525926227914	2.27914e-07
0	6	0.565286503639	-4.96361e-07
0	9	0.579645470949	4.70949e-07
0	12	0.596530921524	-7.8476e-08
0	15	0.616193322698	3.22698e-07
0	18	0.619950543856	-4.56144e-07
0	21	0.627159971744	-2.8256e-08
0	24	0.634579942329	-5.7671e-08
0	27	0.654426675523	-3.24477e-07
0	30	0.676984623773	-3.76227e-07
0	33	0.681727037299	3.7299e-08
0	36	0.684439862845	-1.37155e-07
0	39	0.685082081473	8.1473e-08
0	42	0.704648636049	-3.63951e-07
0	45	0.758498081472	8.1472e-08
0	48	0.766827276442	2.76442e-07
0	51	0.787868819898	-1.80102e-07
0	54	0.797018359881	3.59881e-07
0	57	0.799654677277	-3.22723e-07
0	60	0.82053643628	4.3628e-07
0	63	0.830334820319	-1.79681e-07
0	66	0.907307832502	-1.67498e-07
0	69	0.920367801562	-1.98438e-07
0	72	0.928122331155	3.31155e-07
0	75	0.935322393198	3.93198e-07
0	78	0.935994902626	-9.7374e-08
0	81	0.984749096213	9.6213e-08
0	84	0.98517591483	-8.517e-08
0	87	0.994236840401	-1.59599e-07
0	90	0.994289767928	-2.32072e-07
0	93	0.998561167624	1.67624e-07
0	96	1.00524608884	8.884e-08
0	99	1.013578117825	1.17825e-07
0	102	1.029142090352	9.0352e-08
0	105	1.046207316453	3.16453e-07
0	108	1.04966247594	4.7594e-07
0	111	1.086796978954	-2.1046e-08
0	114	1.119270970346	-2.9654e-08
0	117	1.121133833192	-1.66808e-07
0	120	1.13273773063	-2.6937e-07
0	123	1.183025995037	-4.963e-09
0	126	1.198862689314	-3.10686e-07
0	129	1.21975423093	2.3093e-07
0	132	1.285335147521	1.47521e-07
0	135	1.318226722069	-2.77931e-07
0	138	1.346561491257	4.91257e-07
0	141	1.353975290898	2.90898e-07
0	144	1.431540863588	-1.36412e-07
0	147	1.447730610846	-3.89154e-07
0	150	1.46963240765	4.0765e-07
0	153	1.524847871577	-1.28423e-07
0	156	1.537582459627	4.59627e-07
0	159	1.540897954953	-4.5047e-08
0	162	1.545275289519	2.89519e-07
0	165	1.571221212996	2.12996e-07
0	168	1.578439529706	-4.70294e-07
0	171	1.61054928666	2.8666e-07
0	174	1.6243919326	-6.74e-08
0	177	1.625430726866	-2.73134e-07
0	180	1.650041556358	-4.43642e-07
0	183	1.657934136642	1.36642e-07
0	186	1.673448779154	-2.20846e-07
0	189	1.67528453432	-4.6568e-07
0	192	1.698383352533	3.52533e-07
0	195	1.784482786246	-2.13754e-07
0	198	1.786579426751	4.26751e-07
0	201	1.797680512862	-4.87138e-07
0	204	1.800702020665	2.0665e-08
0	207	1.807713350421	3.50421e-07
0	210	1.853148795385	-2.04615e-07
0	213	1.855636308482	3.08482e-07
0	216	1.859891862469	-1.37531e-07
0	219	1.914888870903	-1.29097e-07
0	222	1.917208816856	-1.83144e-07
0	225	1.929913771246	-2.28754e-07
0	228	1.951323229773	2.29773e-07
0	231	1.972596074315	7.4315e-08
0	234	1.979095292091	2.92091e-07
0	237	2.00715126479	2.6479e-07
0	240	2.01357979062	-2.0938e-07
0	243	2.026292730541	-2.69459e-07
0	246	2.034387309104	3.09104e-07
0	249	2.055119710229	-2.89771e-07
0	252	2.06474597454	-2.546e-08
0	255	2.082330466574	4.66574e-07
0	258	2.084484364838	3.64838e-07
0	261	2.091471384093	3.84093e-07
0	264	2.124111328274	3.28274e-07
0	267	2.134562658705	-3.41295e-07
0	270	2.148315734323	-2.65677e-07
0	273	2.168535187887	1.87887e-07
0	276	2.207103683381	-3.16619e-07
0	279	2.256070222194	2.22194e-07
0	282	2.260697746323	-2.53677e-07
0	285	2.340129989572	-1.0428e-08
0	288	2.361096126213	1.26213e-07
0	291	2.373538559675	-4.40325e-07
0	294	2.386375514278	-4.85722e-07
0	297	2.457316939113	-6.0887e-08
0	300	2.529272485431	4.85431e-07
0	303	2.533689502673	-4.97327e-07
0	306	2.538479055325	5.5325e-08
0	309	2.544489692151	-3.07849e-07
0	312	2.563374609873	-3.90127e-07
0	315	2.594241187255	1.87255e-07
0	318	2.600410143007	1.43007e-07
0	321	2.606685736497	-2.63503e-07
0	324	2.624719981709	-1.8291e-08
0	327	2.627419756959	-2.43041e-07
0	330	2.634893374192	3.74192e-07
0	333	2.64301645672	4.5672e-07
0	336	2.680719387066	3.87066e-07
0	339	2.684690906527	-9.3473e-08
0	342	2.697911659908	-3.40092e-07
0	345	2.722775061754	6.1754e-08
0	348	2.853751245374	2.45374e-07
0	351	2.864240176045	1.76045e-07
0	354	2.888940681237	-3.18763e-07
0	357	2.896450914954	-8.5046e-08
0	360	2.900300269854	2.69854e-07
0	363	2.901829413371	4.13371e-07
0	366	2.906441163458	1.63458e-07
0	369	2.915687978594	-2.1406e-08
0	372	2.935252294597	2.94597e-07
0	375	2.947527580801	-4.19199e-07
0	378	2.958517217263	2.17263e-07
0	381	2.965755911264	-8.8736e-08
0	384	2.98290574383	-2.5617e-07
0	387	2.991466259584	2.59584e-07
0	390	2.998784296028	2.96028e-07
0	393	2.998962152516	1.52516e-07
0	396	3.026444566296	-4.33704e-07
0	399	3.031106106191	1.06191e-07
0	402	3.071158038079	3.8079e-08
0	405	3.117131974315	-2.5685e-08
0	408	3.122833642271	-3.57729e-07
0	411	3.151801886549	-1.13451e-07
0	414	3.166354776453	-2.23547e-07
0	417	3.169335275702	2.75702e-07
0	420	3.171010077	7.7e-08
0	423	3.188102072477	7.2477e-08
0	426	3.220778485574	4.85574e-07
0	429	3.271424515498	-4.84502e-07
0	432	3.28399800323	3.23e-09
0	435	3.292078939872	-6.0128e-08
0	438	3.350916536478	-4.63522e-07
0	441	3.365162172541	1.72541e-07
0	444	3.375824625883	-3.74117e-07
0	447	3.439587939531	-6.0469e-08
0	450	3.496844654855	-3.45145e-07
0	453	3.520331805478	-1.94522e-07
0	456	3.523720319103	3.19103e-07
0	459	3.567306630127	-3.69873e-07
0	462	3.571560867783	-1.32217e-07
0	465	3.581038914853	-8.5147e-08
0	468	3.581297517196	-4.82804e-07
0	471	3.589801095566	9.5566e-08
0	474	3.607298855531	-1.44469e-07
0	477	3.609074310353	3.10353e-07
0	480	3.61458183513	-1.6487e-07
0	483	3.659553434514	4.34514e-07
0	486	3.666166725197	-2.74803e-07
0	489	3.670576838172	-1.61828e-07
0	492	3.755215466162	4.66162e-07
0	495	3.756379444804	4.44804e-07
0	498	3.84174486152	-1.3848e-07
0	501	3.854392628791	-3.71209e-07
0	504	3.884810580034	-4.19966e-07
0	507	3.885862359032	3.59032e-07
0	510	3.89586567399	-3.2601e-07
0	513	3.914021502715	-4.97285e-07
0	516	3.917601582735	-4.17265e-07
0	519	3.939465647562	-3.52438e-07
0	522	3.942438332969	3.32969e-07
0	525	3.951288064895	6.4895e-08
0	528	3.957723161764	1.61764e-07
0	531	3.961613857094	-1.42906e-07
0	534	3.971714764601	-2.35399e-07
0	537	3.975122883729	-1.16271e-07
0	540	3.98319538422	3.8422e-07
0	543	3.984685748489	-2.51511e-07
0	546	4.060338049428	4.9428e-08
0	549	4.100560883246	-1.16754e-07
0	552	4.112262425292	4.25292e-07
0	555	4.116887269821	2.69821e-07
0	558	4.11893648142	4.8142e-07
0	561	4.164811925264	-7.4736e-08
0	564	4.171452759858	-2.40142e-07
0	567	4.183304363303	3.63303e-07
0	570	4.214402776631	-2.23369e-07
0	573	4.227045202302	2.02302e-07
0	576	4.296618891647	-1.08353e-07
0	579	4.299257598957	-4.01043e-07
0	582	4.300192901445	-9.8555e-08
0	585	4.302497275873	2.75873e-07
0	588	4.324375204789	2.04789e-07
0	591	4.382253514044	-4.85956e-07
0	594	4.40815098565	-1.435e-08
0	597	4.494097472494	4.72494e-07
0	600	4.515918385331	3.85331e-07
0	603	4.535896341875	3.41875e-07
0	606	4.538711026636	2.6636e-08
0	609	4.565525190719	1.90719e-07
0	612	4.566929549026	-4.50974e-07
0	615	4.575933437049	4.37049e-07
0	618	4.590502769313	-2.30687e-07
0	621	4.614744421561	4.21561e-07
0	624	4.627094850038	-1.49962e-07
0	627	4.639556671214	-3.28786e-07
0	630	4.639888233506	2.33506e-07
0	633	4.654822240862	2.40862e-07
0	636	4.668222481106	4.81106e-07
0	639	4.668791441387	4.41387e-07
0	642	4.698376745637	-2.54363e-07
0	645	4.840071172966	1.72966e-07
0	648	4.85510994154	-5.846e-08
0	651	4.866777207982	2.07982e-07
0	654	4.872809543368	-4.56632e-07
0	657	4.891197631229	-3.68771e-07
0	660	4.903187089694	8.9694e-08
0	663	4.906773568689	-4.31311e-07
0	666	4.93523515691	1.5691e-07
0	669	4.944454697753	-3.02247e-07
0	672	4.969652159093	1.59093e-07
0	675	4.996630730481	-2.69519e-07
0	678	4.996811316674	3.16674e-07
0	681	5.022248742914	-2.57086e-07
0	684	5.028266313113	3.13113e-07
0	687	5.049935713829	-2.86171e-07
0	690	5.052229701914	-2.98086e-07
0	693	5.053249839926	-1.60074e-07
0	696	5.055258508958	-4.91042e-07
0	699	5.106902546947	-4.53053e-07
0	702	5.125273519568	-4.80432e-07
0	705	5.178666493344	4.93344e-07
0	708	5.178743499471	4.99471e-07
0	711	5.181157596829	-4.03171e-07
0	714	5.183063396439	3.96439e-07
0	717	5.186502591008	-4.08992e-07
0	720	5.191537200566	2.00566e-07
0	723	5.236626757961	-2.42039e-07
0	726	5.251659508097	-4.91903e-07
0	729	5.255680744489	-2.55511e-07
0	732	5.276069690101	-3.09899e-07
0	735	5.319578942843	-5.7157e-08
0	738	5.33916172348	-2.7652e-07
0	741	5.400899507244	-4.92756e-07
0	744	5.411624813453	-1.86547e-07
0	747	5.416214101668	1.01668e-07
0	750	5.466954265861	2.65861e-07
0	753	5.467575198971	1.98971e-07
0	756	5.481264500831	-4.99169e-07
0	759	5.490708193276	1.93276e-07
0	762	5.509082022495	2.2495e-08
0	765	5.56211812785	1.2785e-07
0	768	5.573778882717	-1.17283e-07
0	771	5.573879850794	-1.49206e-07
0	774	5.577013980039	-1.9961e-08
0	777	5.58637617738	1.7738e-07
0	780	5.601805382361	3.82361e-07
0	783	5.625542602595	-3.97405e-07
0	786	5.642860066938	6.6938e-08
0	789	5.744220551337	-4.48663e-07
0	792	5.755335130216	1.30216e-07
0	795	5.783056049142	4.9142e-08
0	798	5.808463918931	-8.1069e-08
0	801	5.823897954449	-4.5551e-08
0	804	5.827577117272	1.17272e-07
0	807	5.86107417671	1.7671e-07
0	810	5.885479602916	-3.97084e-07
0	813	5.916672932449	-6.7551e-08
0	816	5.924739731988	-2.68012e-07
0	819	5.925853388057	3.88057e-07
0	822	5.932022360198	3.60198e-07
0	825	5.987597595528	-4.04472e-07
0	828	5.99635936385	3.6385e-07
0	831	6.009176881145	-1.18855e-07
0	834	6.013477321808	3.21808e-07
0	837	6.019248634763	-3.65237e-07
0	840	6.029348640144	-3.59856e-07
0	843	6.039195860316	-1.39684e-07
0	846	6.069131514151	-4.85849e-07
0	849	6.081912125368	1.25368e-07
0	852	6.094332671725	-3.28275e-07
0	855	6.101834838604	-1.61396e-07
0	858	6.124638081343	8.1343e-08
0	861	6.225828455109	4.55109e-07
0	864	6.227133001247	1.247e-09
0	867	6.233323540446	-4.59554e-07
0	870	6.234853599872	-4.00128e-07
0	873	6.246047029738	2.9738e-08
0	876	6.252695671982	-3.28018e-07
0	879	6.267230859865	-1.40135e-07
0	882	6.276313974709	-2.5291e-08
0	885	6.315457847341	-1.52659e-07
0	888	6.346814312831	3.12831e-07
0	891	6.370608273056	2.73056e-07
0	894	6.384486553863	-4.46137e-07
0	897	6.385087700794	-2.99206e-07
0	900	6.396826088848	8.8848e-08
0	903	6.401718113805	1.13805e-07
0	906	6.420799354092	3.54092e-07
0	909	6.457139601698	-3.98302e-07
0	912	6.496820722241	-2.77759e-07
0	915	6.5335451148	1.148e-07
0	918	6.538675336633	3.36633e-07
0	921	6.551896018722	1.8722e-08
0	924	6.560934142536	1.42536e-07
0	927	6.591836249082	2.49082e-07
0	930	6.596089168079	1.68079e-07
0	933	6.65292078876	-2.1124e-07
0	936	6.659145083419	8.3419e-08
0	939	6.665698457462	4.57462e-07
0	942	6.712260944537	-5.5463e-08
0	945	6.726983191771	1.91771e-07
0	948	6.762086201087	2.01087e-07
0	951	6.791553253308	2.53308e-07
0	954	6.80067959954	-4.0046e-07
0	957	6.817582461704	4.61704e-07
0	960	6.832538875097	-1.24903e-07
0	963	6.857583364332	3.64332e-07
0	966	6.878810525872	-4.74128e-07
0	969	6.91233120812	2.0812e-07
0	972	6.967262230301	2.30301e-07
0	975	6.983108546911	-4.53089e-07
0	978	6.991926223365	2.23365e-07
0	981	7.01152588781	-1.1219e-07
0	984	7.030912162085	1.62085e-07
0	987	7.042299548862	-4.51138e-07
0	990	7.043244805512	-1.94488e-07
0	993	7.056235679519	-3.20481e-07
0	996	7.066818148178	1.48178e-07
0	999	7.071515068226	6.8226e-08
0	1002	7.127745489963	4.89963e-07
0	1005	7.129927853168	-1.46832e-07
0	1008	7.199263549364	-4.50636e-07
0	1011	7.210901914211	-8.5789e-08
0	1014	7.222238392989	3.92989e-07
0	1017	7.223943685507	-3.14493e-07
0	1020	7.224143754504	-2.45496e-07
0	1023	7.241050615209	-3.84791e-07
0	1026	7.247570526275	-4.73725e-07
0	1029	7.272377510323	-4.89677e-07
0	1032	7.283626005891	5.891e-09
0	1035	7.303492091317	9.1317e-08
0	1038	7.30353186247	-1.3753e-07
0	1041	7.321604501082	-4.98918e-07
0	1044	7.322793735285	-2.64715e-07
0	1047	7.323244440463	4.40463e-07
0	1050	7.375133136707	1.36707e-07
0	1053	7.393884591664	-4.08336e-07
0	1056	7.440835521184	-4.78816e-07
0	1059	7.443312348706	3.48706e-07
0	1062	7.471428933227	-6.6773e-08
0	1065	7.512657184107	1.84107e-07
0	1068	7.544722525868	-4.74132e-07
0	1071	7.552451768239	-2.31761e-07
0	1074	7.588965715563	-2.84437e-07
0	1077	7.61929553086	-4.6914e-07
0	1080	7.6306265431	-4.569e-07
0	1083	7.661990089015	8.9015e-08
0	1086	7.683185768592	-2.31408e-07
0	1089	7.695150534251	-4.65749e-07
0	1092	7.731392734497	-2.65503e-07
0	1095	7.747688893137	-1.06863e-07
0	1098	7.776657991483	-8.517e-09
0	1101	7.800474472298	4.72298e-07
0	1104	7.837559272675	2.72675e-07
0	1107	7.839251681324	-3.18676e-07
0	1110	7.863121156767	1.56767e-07
0	1113	7.90124539635	3.9635e-07
0	1116	7.913215560792	-4.39208e-07
0	1119	7.921877699809	-3.00191e-07
0	1122	7.927320268145	2.68145e-07
0	1125	7.947339833574	-1.66426e-07
0	1128	7.963885590575	-4.09425e-07
0	1131	7.987034017546	1.7546e-08
0	1134	7.991942658229	-3.41771e-07
0	1137	8.014582337765	3.37765e-07
0	1140	8.02625796427	-3.573e-08
0	1143	8.0747577101	-2.899e-07
0	1146	8.098579974473	-2.5527e-08
0	1149	8.108735475595	4.75595e-07
0	1152	8.128599368456	3.68456e-07
0	1155	8.137690802337	-1.97663e-07
0	1158	8.14432577868	-2.2132e-07
0	1161	8.162321410746	4.10746e-07
0	1164	8.164112155186	1.55186e-07
0	1167	8.167553663626	-3.36374e-07
0	1170	8.218717450789	4.50789e-07
0	1173	8.26766308616	8.616e-08
0	1176	8.273206770002	-2.29998e-07
0	1179	8.310614707832	-2.92168e-07
0	1182	8.311071460462	4.60462e-07
0	1185	8.317546933005	-6.6995e-08
0	1188	8.357479256113	2.56113e-07
0	1191	8.35755782975	-1.7025e-07
0	1194	8.363697288512	2.88512e-07
0	1197	8.39412788269	-1.1731e-07
0	1200	8.404947424259	4.24259e-07
0	1203	8.417168036662	3.6662e-08
0	1206	8.444529714343	-2.85657e-07
0	1209	8.446826804896	-1.95104e-07
0	1212	8.453384472384	4.72384e-07
0	1215	8.456421340676	3.40676e-07
0	1218	8.564385064179	6.4179e-08
0	1221	8.574160665508	-3.34492e-07
0	1224	8.599846172939	1.72939e-07
0	1227	8.600782900024	-9.9976e-08
0	1230	8.602862780123	-2.19877e-07
0	1233	8.674665310931	3.10931e-07
0	1236	8.691022290894	2.90894e-07
0	1239	8.717635515285	-4.84715e-07
0	1242	8.770462907945	-9.2055e-08
0	1245	8.783205861041	-1.38959e-07
0	1248	8.833184595079	-4.04921e-07
0	1251	8.868941081083	8.1083e-08
0	1254	8.871024706075	-2.93925e-07
0	1257	8.87361875507	-2.4493e-07
0	1260	8.881983539835	-4.60165e-07
0	1263	8.901644930709	-6.9291e-08
0	1266	8.905662495643	4.95643e-07
0	1269	8.924483937723	-6.2277e-08
0	1272	8.942476067925	6.7925e-08
0	1275	8.945767578389	-4.21611e-07
0	1278	8.947667053017	5.3017e-08
0	1281	8.956282836664	-1.63336e-07
0	1284	8.956360021699	2.1699e-08
0	1287	8.985081530686	-4.69314e-07
0	1290	8.989468572008	-4.27992e-07
0	1293	9.043839206361	2.06361e-07
0	1296	9.089155869046	-1.30954e-07
0	1299	9.100497776782	-2.23218e-07
0	1302	9.107491130661	1.30661e-07
0	1305	9.133569612448	-3.87552e-07
0	1308	9.148234018405	1.8405e-08
0	1311	9.167201518872	-4.81128e-07
0	1314	9.176149517529	-4.82471e-07
0	1317	9.200804903918	-9.6082e-08
0	1320	9.22857997166	-2.834e-08
0	1323	9.238376023295	2.3295e-08
0	1326	9.251773443398	4.43398e-07
0	1329	9.30275369007	-3.0993e-07
0	1332	9.334295334761	3.34761e-07
0	1335	9.338605516683	-4.83317e-07
0	1338	9.339319185401	1.85401e-07
0	1341	9.358982976245	-2.3755e-08
0	1344	9.362472388382	3.88382e-07
0	1347	9.363682972966	-2.7034e-08
0	1350	9.40059758448	-4.1552e-07
0	1353	9.414997345256	3.45256e-07
0	1356	9.418240662852	-3.37148e-07
0	1359	9.433843534767	-4.65233e-07
0	1362	9.517765762704	-2.37296e-07
0	1365	9.539519736963	-2.63037e-07
0	1368	9.548184345617	3.45617e-07
0	1371	9.615587665606	-3.34394e-07
0	1374	9.644720408693	4.08693e-07
0	1377	9.650285077795	7.7795e-08
0	1380	9.678546865332	-1.34668e-07
0	1383	9.689330841229	-1.58771e-07
0	1386	9.717266768961	-2.31039e-07
0	1389	9.74935526671	2.6671e-07
0	1392	9.77160744667	4.4667e-07
0	1395	9.788483262015	2.62015e-07
0	1398	9.812080832757	-1.67243e-07
0	1401	9.812227406864	4.06864e-07
0	1404	9.81466313121	1.3121e-07
0	1407	9.840551060345	6.0345e-08
0	1410	9.850314459765	4.59765e-07
0	1413	9.856668168772	1.68772e-07
0	1416	9.872211333132	3.33132e-07
0	1419	9.884540780494	-2.19506e-07
0	1422	9.89073398239	-1.761e-08
0	1425	9.897722395415	3.95415e-07
0	1428	9.898887547478	-4.52522e-07
0	1431	9.933662905683	-9.4317e-08
0	1434	9.9742580635	6.35e-08

