version 3
run NoSec50_record-0-20250829-01:43:58-79717
attr configname NoSec50_record
attr datetime 20250829-01:43:58
attr datetimef 20250829-014358
attr experiment NoSec50_record
attr inifile run_record.ini
attr iterationvars ""
attr iterationvarsd ""
attr iterationvarsf ""
attr measurement ""
attr network ned.LightIoTNetwork
attr processid 79717
attr repetition 0
attr replication #0
attr resultdir results
attr runnumber 0
attr seedset 1
config output-scalar-file results/NoSec50_record-rep1.sca
config output-vector-file results/NoSec50_record-rep1.vec
config seed-set 1
config network ned.LightIoTNetwork
config output-scalar-file results/NoSec50_record-0.sca
config output-vector-file results/NoSec50_record-0.vec
config **.scalar-recording true
config **.vector-recording true
config **.result-recording-modes all
config LightIoTNetwork.numSensorNodes 50
config **.fakeNode.enabled false
config **.gateway.securityEnabled false
config **.gateway.procDelay 0s
config **.gateway.costForward_mJ 5
config **.gateway.costVerify_mJ 0
config **.gateway.batteryInit_mJ 5000
config sim-time-limit 10s
config description "Secure Mode Simulation (includes all scenarios)"
config network ned.LightIoTNetwork
config ned-path .
config sim-time-limit 10s
config record-eventlog true
config cmdenv-express-mode false
config network ned.LightIoTNetwork
config sim-time-limit 10s
config output-scalar-file results/secure_output.sca
config output-vector-file results/secure_output.vec
config network LightIoTNetwork
config sim-time-limit 10s
config output-scalar-file results/nosecure_output.sca
config output-vector-file results/nosecure_output.vec
config network LightIoTNetwork
config sim-time-limit 10s
config output-scalar-file results/attack_output.sca
config output-vector-file results/attack_output.vec
config output-scalar-file results/NoSec50_record-0.sca
config output-vector-file results/NoSec50_record-0.vec
config **.scalar-recording true
config **.vector-recording true
config **.statistic-recording true
config **.result-recording-modes all
config rng-class cMersenneTwister
config num-rngs 1
config seed-set 123

vector 0 LightIoTNetwork.cloud EndToEndDelay_s ETV
0	3	0.50011438108	3.8108e-07
0	6	0.527387595968	-4.04032e-07
0	9	0.592338595539	-4.04461e-07
0	12	0.592800810235	-1.89765e-07
0	15	0.628124447772	4.47772e-07
0	18	0.640386936953	-6.3047e-08
0	21	0.646755892551	-1.07449e-07
0	24	0.686260211281	2.11281e-07
0	27	0.698101483285	4.83285e-07
0	30	0.704452248989	2.48989e-07
0	33	0.729577220045	2.20045e-07
0	36	0.736088976264	-2.3736e-08
0	39	0.80233256775	-4.3225e-07
0	42	0.813273512991	-4.87009e-07
0	45	0.813424184686	1.84686e-07
0	48	0.84556072508	-2.7492e-07
0	51	0.887910740217	-2.59783e-07
0	54	0.896580726141	-2.73859e-07
0	57	0.896767468657	4.68657e-07
0	60	0.917021998437	-1.563e-09
0	63	0.917304804316	-1.95684e-07
0	66	0.919194519054	-4.80946e-07
0	69	0.930698570097	-4.29903e-07
0	72	0.943452893756	-1.06244e-07
0	75	0.95720480918	-1.9082e-07
0	78	1.018152548233	-4.51767e-07
0	81	1.024548162706	1.62706e-07
0	84	1.034413907211	-9.2789e-08
0	87	1.038816731889	-2.68111e-07
0	90	1.058689827332	-1.72668e-07
0	93	1.169746040367	4.0367e-08
0	96	1.17046750756	-4.9244e-07
0	99	1.18521950068	-4.9932e-07
0	102	1.192322616931	-3.83069e-07
0	105	1.21597051085	-4.8915e-07
0	108	1.220324489288	4.89288e-07
0	111	1.278389235493	2.35493e-07
0	114	1.300744566368	-4.33632e-07
0	117	1.302757503232	-4.96768e-07
0	120	1.346310918219	-8.1781e-08
0	123	1.365020245314	2.45314e-07
0	126	1.376389146084	1.46084e-07
0	129	1.378117437009	4.37009e-07
0	132	1.413962022401	2.2401e-08
0	135	1.4325573612	3.612e-07
0	138	1.435539072612	7.2612e-08
0	141	1.439127794933	-2.05067e-07
0	144	1.468261571834	-4.28166e-07
0	147	1.497184808133	-1.91867e-07
0	150	1.499040515395	-4.84605e-07
0	153	1.509347436949	4.36949e-07
0	156	1.535935404617	4.04617e-07
0	159	1.579035713849	-2.86151e-07
0	162	1.580721977074	-2.2926e-08
0	165	1.593216978106	-2.1894e-08
0	168	1.594996932428	-6.7572e-08
0	171	1.598108850698	-1.49302e-07
0	174	1.649246587325	-4.12675e-07
0	177	1.658721483173	4.83173e-07
0	180	1.738557857229	-1.42771e-07
0	183	1.754702079622	7.9622e-08
0	186	1.773729984136	-1.5864e-08
0	189	1.78655409189	9.189e-08
0	192	1.827918300871	3.00871e-07
0	195	1.836090904847	-9.5153e-08
0	198	1.847604331327	3.31327e-07
0	201	1.847618545638	-4.54362e-07
0	204	1.874947927194	-7.2806e-08
0	207	1.880407931097	-6.8903e-08
0	210	1.894543798081	-2.01919e-07
0	213	1.90500209108	9.108e-08
0	216	1.928205818729	-1.81271e-07
0	219	1.935142891202	-1.08798e-07
0	222	1.941248169215	1.69215e-07
0	225	1.967998755025	-2.44975e-07
0	228	2.000115788262	-2.11738e-07
0	231	2.000660317251	3.17251e-07
0	234	2.024129943876	-5.6124e-08
0	237	2.083495823992	-1.76008e-07
0	240	2.088845594367	-4.05633e-07
0	243	2.152021676628	-3.23372e-07
0	246	2.172059309297	3.09297e-07
0	249	2.202594652493	-3.47507e-07
0	252	2.209551389422	3.89422e-07
0	255	2.223402705649	-2.94351e-07
0	258	2.234852631297	-3.68703e-07
0	261	2.245169476047	4.76047e-07
0	264	2.260983753064	-2.46936e-07
0	267	2.267518257862	2.57862e-07
0	270	2.333196474192	4.74192e-07
0	273	2.336245101923	1.01923e-07
0	276	2.354598950222	-4.9778e-08
0	279	2.370236851042	-1.48958e-07
0	282	2.391280189855	1.89855e-07
0	285	2.392159666587	-3.33413e-07
0	288	2.396682863543	-1.36457e-07
0	291	2.413220828631	-1.71369e-07
0	294	2.423190521961	-4.78039e-07
0	297	2.452660005679	5.679e-09
0	300	2.459836537903	-4.62097e-07
0	303	2.504000391998	3.91998e-07
0	306	2.516213106876	1.06876e-07
0	309	2.535542600322	-3.99678e-07
0	312	2.55121818222	1.8222e-07
0	315	2.6090326095	-3.905e-07
0	318	2.614802819956	-1.80044e-07
0	321	2.657036115229	1.15229e-07
0	324	2.664094243944	2.43944e-07
0	327	2.665374588501	-4.11499e-07
0	330	2.677086608391	-3.91609e-07
0	333	2.755435681996	-3.18004e-07
0	336	2.765436619288	-3.80712e-07
0	339	2.786912389844	3.89844e-07
0	342	2.801377613238	-3.86762e-07
0	345	2.825468977168	-2.2832e-08
0	348	2.827143723471	-2.76529e-07
0	351	2.840746882371	-1.17629e-07
0	354	2.850705964538	-3.5462e-08
0	357	2.865479653095	-3.46905e-07
0	360	2.917954088421	8.8421e-08
0	363	2.920359603409	-3.96591e-07
0	366	2.934895517304	-4.82696e-07
0	369	2.938911463087	4.63087e-07
0	372	2.983496170491	1.70491e-07
0	375	2.993486515758	-4.84242e-07
0	378	2.998727706959	-2.93041e-07
0	381	3.006878786627	-2.13373e-07
0	384	3.031235795933	-2.04067e-07
0	387	3.032250045566	4.5566e-08
0	390	3.081128454302	4.54302e-07
0	393	3.137544613471	-3.86529e-07
0	396	3.141942615807	-3.84193e-07
0	399	3.159200958349	-4.1651e-08
0	402	3.166944025084	2.5084e-08
0	405	3.226380527159	-4.72841e-07
0	408	3.23535358226	-4.1774e-07
0	411	3.284829265624	2.65624e-07
0	414	3.293333347142	3.47142e-07
0	417	3.297731791576	-2.08424e-07
0	420	3.320014935267	-6.4733e-08
0	423	3.33408842776	4.2776e-07
0	426	3.362756588543	-4.11457e-07
0	429	3.380876226444	2.26444e-07
0	432	3.398707390996	3.90996e-07
0	435	3.409821568522	-4.31478e-07
0	438	3.416925484501	4.84501e-07
0	441	3.43219537246	3.7246e-07
0	444	3.437071230775	2.30775e-07
0	447	3.467521476839	4.76839e-07
0	450	3.474699086742	8.6742e-08
0	453	3.475110037252	3.7252e-08
0	456	3.523470386908	3.86908e-07
0	459	3.546672882512	-1.17488e-07
0	462	3.578585781343	-2.18657e-07
0	465	3.602349584549	-4.15451e-07
0	468	3.621044316049	3.16049e-07
0	471	3.629004532378	-4.67622e-07
0	474	3.691661539674	-4.60326e-07
0	477	3.707198535744	-4.64256e-07
0	480	3.710574185988	1.85988e-07
0	483	3.797931541828	-4.58172e-07
0	486	3.803477537214	-4.62786e-07
0	489	3.810526550095	-4.49905e-07
0	492	3.811646831082	-1.68918e-07
0	495	3.819465231848	2.31848e-07
0	498	3.8309274924	4.924e-07
0	501	3.83209690028	-9.972e-08
0	504	3.87565746461	4.6461e-07
0	507	3.889260431798	4.31798e-07
0	510	3.901061545824	-4.54176e-07
0	513	3.903352575983	-4.24017e-07
0	516	3.924529701145	-2.98855e-07
0	519	3.985453187348	1.87348e-07
0	522	3.995886856504	-1.43496e-07
0	525	3.999536846485	-1.53515e-07
0	528	4.030857609817	-3.90183e-07
0	531	4.039567086287	8.6287e-08
0	534	4.056589189544	1.89544e-07
0	537	4.059764536284	-4.63716e-07
0	540	4.060493807448	-1.92552e-07
0	543	4.079757490474	4.90474e-07
0	546	4.086454525589	-4.74411e-07
0	549	4.19933291059	-8.941e-08
0	552	4.206415654906	-3.45094e-07
0	555	4.216362953791	-4.6209e-08
0	558	4.249098810321	-1.89679e-07
0	561	4.2793591524	1.524e-07
0	564	4.281493822951	-1.77049e-07
0	567	4.295975593292	-4.06708e-07
0	570	4.300507187098	1.87098e-07
0	573	4.332769437413	4.37413e-07
0	576	4.377197584603	-4.15397e-07
0	579	4.381700736704	-2.63296e-07
0	582	4.405285051232	5.1232e-08
0	585	4.415340601979	-3.98021e-07
0	588	4.424557466152	4.66152e-07
0	591	4.440439017676	1.7676e-08
0	594	4.453026390076	3.90076e-07
0	597	4.461552129733	1.29733e-07
0	600	4.48038738044	3.8044e-07
0	603	4.490950460127	4.60127e-07
0	606	4.491619059444	5.9444e-08
0	609	4.539197173294	1.73294e-07
0	612	4.552084503695	-4.96305e-07
0	615	4.600458484469	4.84469e-07
0	618	4.662852820521	-1.79479e-07
0	621	4.679538003587	3.587e-09
0	624	4.685789700691	-2.99309e-07
0	627	4.713690798263	-2.01737e-07
0	630	4.763492700085	-2.99915e-07
0	633	4.76544704102	4.102e-08
0	636	4.788905564835	-4.35165e-07
0	639	4.796956074285	7.4285e-08
0	642	4.815077844774	-1.55226e-07
0	645	4.822603565221	-4.34779e-07
0	648	4.837820678112	-3.21888e-07
0	651	4.870276284126	2.84126e-07
0	654	4.885922452341	4.52341e-07
0	657	4.897266010289	1.0289e-08
0	660	4.905352678708	-3.21292e-07
0	663	4.912880337331	3.37331e-07
0	666	4.919024709426	-2.90574e-07
0	669	4.969248825032	-1.74968e-07
0	672	4.972964570997	-4.29003e-07
0	675	4.98872500211	2.11e-09
0	678	5.006566368276	3.68276e-07
0	681	5.044439821923	-1.78077e-07
0	684	5.04945149105	4.9105e-07
0	687	5.078930718824	-2.81176e-07
0	690	5.086055939458	-6.0542e-08
0	693	5.088104033097	3.3097e-08
0	696	5.130850100843	1.00843e-07
0	699	5.14812931656	3.1656e-07
0	702	5.158959659469	-3.40531e-07
0	705	5.220829785756	-2.14244e-07
0	708	5.234962858492	-1.41508e-07
0	711	5.236745463823	4.63823e-07
0	714	5.250108149229	1.49229e-07
0	717	5.285266198032	1.98032e-07
0	720	5.286942934152	-6.5848e-08
0	723	5.300967861944	-1.38056e-07
0	726	5.321001899801	-1.00199e-07
0	729	5.321664103772	1.03772e-07
0	732	5.326758112898	1.12898e-07
0	735	5.356460242253	2.42253e-07
0	738	5.373453436559	4.36559e-07
0	741	5.38968123165	2.3165e-07
0	744	5.42651952179	-4.7821e-07
0	747	5.43797075213	-2.4787e-07
0	750	5.43813094697	-5.303e-08
0	753	5.498716673348	-3.26652e-07
0	756	5.533557719831	-2.80169e-07
0	759	5.549761567962	-4.32038e-07
0	762	5.604372667008	-3.32992e-07
0	765	5.618516589049	-4.10951e-07
0	768	5.632514206227	2.06227e-07
0	771	5.645618088822	8.8822e-08
0	774	5.668864663132	-3.36868e-07
0	777	5.669527534394	-4.65606e-07
0	780	5.681803988153	-1.1847e-08
0	783	5.77400574214	-2.5786e-07
0	786	5.782598894602	-1.05398e-07
0	789	5.798663152428	1.52428e-07
0	792	5.802918896405	-1.03595e-07
0	795	5.811389326212	3.26212e-07
0	798	5.834809609176	-3.90824e-07
0	801	5.859475192008	1.92008e-07
0	804	5.863304679048	-3.20952e-07
0	807	5.890875223419	2.23419e-07
0	810	5.948521446669	4.46669e-07
0	813	5.957392544906	-4.55094e-07
0	816	5.962503029825	2.9825e-08
0	819	5.966297131218	1.31218e-07
0	822	5.99194833301	3.3301e-07
0	825	5.995554189058	1.89058e-07
0	828	6.030669863289	-1.36711e-07
0	831	6.071618466498	4.66498e-07
0	834	6.075420361991	3.61991e-07
0	837	6.099352080561	8.0561e-08
0	840	6.099826084915	8.4915e-08
0	843	6.116526582744	-4.17256e-07
0	846	6.11714819246	1.9246e-07
0	849	6.128355046734	4.6734e-08
0	852	6.131340549375	-4.50625e-07
0	855	6.132813324734	3.24734e-07
0	858	6.16101415404	1.5404e-07
0	861	6.165630555292	-4.44708e-07
0	864	6.194176572981	-4.27019e-07
0	867	6.2224666866	-3.134e-07
0	870	6.266805971506	-2.8494e-08
0	873	6.280653323699	3.23699e-07
0	876	6.337546214415	2.14415e-07
0	879	6.340481948527	-5.1473e-08
0	882	6.350023901462	-9.8538e-08
0	885	6.36408486953	-1.3047e-07
0	888	6.370224908786	-9.1214e-08
0	891	6.377393592335	-4.07665e-07
0	894	6.399058039114	3.9114e-08
0	897	6.401624627505	-3.72495e-07
0	900	6.413111529965	-4.70035e-07
0	903	6.457384276109	2.76109e-07
0	906	6.492429614207	-3.85793e-07
0	909	6.576535617978	-3.82022e-07
0	912	6.583658462717	4.62717e-07
0	915	6.586276737041	-2.62959e-07
0	918	6.587443236867	2.36867e-07
0	921	6.612231419608	4.19608e-07
0	924	6.619992683733	-3.16267e-07
0	927	6.632136681583	-3.18417e-07
0	930	6.64321683389	-1.6611e-07
0	933	6.714922600519	-3.99481e-07
0	936	6.737749048462	4.8462e-08
0	939	6.773308295942	2.95942e-07
0	942	6.809036388248	3.88248e-07
0	945	6.822770913599	-8.6401e-08
0	948	6.827661112138	1.12138e-07
0	951	6.890661235992	2.35992e-07
0	954	6.905362097594	9.7594e-08
0	957	6.922239078395	7.8395e-08
0	960	6.932819957845	-4.2155e-08
0	963	6.953479189891	1.89891e-07
0	966	6.960240983311	-1.6689e-08
0	969	6.96505107386	7.386e-08
0	972	6.996712558111	-4.41889e-07
0	975	7.019545331458	3.31458e-07
0	978	7.020241822442	-1.77558e-07
0	981	7.030710359476	3.59476e-07
0	984	7.039277249762	2.49762e-07
0	987	7.042359475698	4.75698e-07
0	990	7.127021190291	1.90291e-07
0	993	7.130082346035	3.46035e-07
0	996	7.137414645962	-3.54038e-07
0	999	7.147372305533	3.05533e-07
0	1002	7.151695844763	-1.55237e-07
0	1005	7.154024604336	-3.95664e-07
0	1008	7.186896447185	4.47185e-07
0	1011	7.223789426404	4.26404e-07
0	1014	7.23623697413	-2.587e-08
0	1017	7.244125804771	-1.95229e-07
0	1020	7.24669120051	2.0051e-07
0	1023	7.257862465502	4.65502e-07
0	1026	7.271891114208	1.14208e-07
0	1029	7.29943145751	4.5751e-07
0	1032	7.343911503675	-4.96325e-07
0	1035	7.353421827499	-1.72501e-07
0	1038	7.356241585035	-4.14965e-07
0	1041	7.380033914279	-8.5721e-08
0	1044	7.400815786841	-2.13159e-07
0	1047	7.411814271194	2.71194e-07
0	1050	7.438205179712	1.79712e-07
0	1053	7.506451162229	1.62229e-07
0	1056	7.513896691799	-3.08201e-07
0	1059	7.525498386147	3.86147e-07
0	1062	7.539260648702	-3.51298e-07
0	1065	7.57571835476	3.5476e-07
0	1068	7.576088965685	-3.4315e-08
0	1071	7.585763572854	-4.27146e-07
0	1074	7.606153521873	-4.78127e-07
0	1077	7.610382196632	1.96632e-07
0	1080	7.652600735286	-2.64714e-07
0	1083	7.672841006236	6.236e-09
0	1086	7.715343098388	9.8388e-08
0	1089	7.728120237123	2.37123e-07
0	1092	7.740866102232	1.02232e-07
0	1095	7.760102214386	2.14386e-07
0	1098	7.803968532477	-4.67523e-07
0	1101	7.851881520171	-4.79829e-07
0	1104	7.873322025269	2.5269e-08
0	1107	7.874302098807	9.8807e-08
0	1110	7.876654833975	-1.66025e-07
0	1113	7.888893584674	-4.15326e-07
0	1116	7.903737930022	-6.9978e-08
0	1119	8.014430102985	1.02985e-07
0	1122	8.035558666009	-3.33991e-07
0	1125	8.035644420795	4.20795e-07
0	1128	8.047437507799	-4.92201e-07
0	1131	8.060564523283	-4.76717e-07
0	1134	8.082741700953	-2.99047e-07
0	1137	8.082915143808	1.43808e-07
0	1140	8.102318146033	1.46033e-07
0	1143	8.107206292032	2.92032e-07
0	1146	8.127321069268	6.9268e-08
0	1149	8.151679613208	-3.86792e-07
0	1152	8.179772423068	4.23068e-07
0	1155	8.191443772148	-2.27852e-07
0	1158	8.197298172814	1.72814e-07
0	1161	8.201037797472	-2.02528e-07
0	1164	8.202221771609	-2.28391e-07
0	1167	8.278225032286	3.2286e-08
0	1170	8.283599266595	2.66595e-07
0	1173	8.300294244755	2.44755e-07
0	1176	8.309302773978	-2.26022e-07
0	1179	8.325688976469	-2.3531e-08
0	1182	8.329273672449	-3.27551e-07
0	1185	8.344256878969	-1.21031e-07
0	1188	8.401953064371	6.4371e-08
0	1191	8.403389585204	-4.14796e-07
0	1194	8.417727435101	4.35101e-07
0	1197	8.452082864894	-1.35106e-07
0	1200	8.477689507837	-4.92163e-07
0	1203	8.479962712246	-2.87754e-07
0	1206	8.501617535438	-4.64562e-07
0	1209	8.536829024088	2.4088e-08
0	1212	8.588383740232	-2.59768e-07
0	1215	8.596486386004	3.86004e-07
0	1218	8.598936713394	-2.86606e-07
0	1221	8.611503044609	4.4609e-08
0	1224	8.614076814194	-1.85806e-07
0	1227	8.645686427271	4.27271e-07
0	1230	8.648733416897	4.16897e-07
0	1233	8.658839625865	-3.74135e-07
0	1236	8.670039140245	1.40245e-07
0	1239	8.691423664102	-3.35898e-07
0	1242	8.748982335021	3.35021e-07
0	1245	8.770011798247	-2.01753e-07
0	1248	8.794368853793	-1.46207e-07
0	1251	8.85033020475	2.0475e-07
0	1254	8.867868707469	-2.92531e-07
0	1257	8.925579327671	3.27671e-07
0	1260	8.934989774089	-2.25911e-07
0	1263	8.937117805565	-1.94435e-07
0	1266	8.942528210859	2.10859e-07
0	1269	8.958048785944	-2.14056e-07
0	1272	8.970435553929	-4.46071e-07
0	1275	8.98583042738	4.2738e-07
0	1278	8.998445694849	-3.05151e-07
0	1281	9.009930974897	-2.5103e-08
0	1284	9.018352954555	-4.5445e-08
0	1287	9.029863602528	-3.97472e-07
0	1290	9.055984574835	-4.25165e-07
0	1293	9.107082609832	-3.90168e-07
0	1296	9.108338725987	-2.74013e-07
0	1299	9.140955185657	1.85657e-07
0	1302	9.169058815716	-1.84284e-07
0	1305	9.171681479225	4.79225e-07
0	1308	9.181228828243	-1.71757e-07
0	1311	9.230381024023	2.4023e-08
0	1314	9.235533496831	4.96831e-07
0	1317	9.266460891301	-1.08699e-07
0	1320	9.270456247776	2.47776e-07
0	1323	9.278015951718	-4.8282e-08
0	1326	9.281037814309	-1.85691e-07
0	1329	9.289561624265	-3.75735e-07
0	1332	9.292101691012	-3.08988e-07
0	1335	9.329888854409	-1.45591e-07
0	1338	9.421030195849	1.95849e-07
0	1341	9.424602902448	-9.7552e-08
0	1344	9.433984860965	-1.39035e-07
0	1347	9.465287723345	-2.76655e-07
0	1350	9.47253447273	4.7273e-07
0	1353	9.479091036553	3.6553e-08
0	1356	9.518853632779	-3.67221e-07
0	1359	9.547234540666	-4.59334e-07
0	1362	9.553231859953	-1.40047e-07
0	1365	9.567984209581	2.09581e-07
0	1368	9.650815678527	-3.21473e-07
0	1371	9.656032719554	-2.80446e-07
0	1374	9.667639789962	-2.10038e-07
0	1377	9.672252783924	-2.16076e-07
0	1380	9.680449933652	-6.6348e-08
0	1383	9.700693027349	2.7349e-08
0	1386	9.71824003728	3.728e-08
0	1389	9.726764889667	-1.10333e-07
0	1392	9.741878777881	-2.22119e-07
0	1395	9.79317393913	-6.087e-08
0	1398	9.807473975607	-2.4393e-08
0	1401	9.809782380378	3.80378e-07
0	1404	9.829732515897	-4.84103e-07
0	1407	9.861155440705	4.40705e-07
0	1410	9.905250376928	3.76928e-07
0	1413	9.92363003213	3.213e-08
0	1416	9.942124341849	3.41849e-07
0	1419	9.956939867232	-1.32768e-07
0	1422	9.968092994531	-5.469e-09
0	1425	9.996666245628	2.45628e-07

