version 3
run NoSec50_record-0-20250819-01:19:19-4242
attr configname NoSec50_record
attr datetime 20250819-01:19:19
attr datetimef 20250819-011919
attr experiment NoSec50_record
attr inifile run_record.ini
attr iterationvars ""
attr iterationvarsd ""
attr iterationvarsf ""
attr measurement ""
attr network ned.LightIoTNetwork
attr processid 4242
attr repetition 0
attr replication #0
attr resultdir results
attr runnumber 0
attr seedset 0
config network ned.LightIoTNetwork
config output-scalar-file results/NoSec50_record-0.sca
config output-vector-file results/NoSec50_record-0.vec
config **.scalar-recording true
config **.vector-recording true
config **.result-recording-modes all
config LightIoTNetwork.numSensorNodes 50
config **.fakeNode.enabled false
config **.gateway.securityEnabled false
config **.gateway.procDelay 0s
config **.gateway.costForward_mJ 5
config **.gateway.costVerify_mJ 0
config **.gateway.batteryInit_mJ 5000
config sim-time-limit 10s
config description "Secure Mode Simulation (includes all scenarios)"
config network ned.LightIoTNetwork
config ned-path .:ned
config sim-time-limit 10s
config record-eventlog true
config cmdenv-express-mode false
config network ned.LightIoTNetwork
config sim-time-limit 10s
config output-scalar-file results/secure_output.sca
config output-vector-file results/secure_output.vec
config network LightIoTNetwork
config sim-time-limit 10s
config output-scalar-file results/nosecure_output.sca
config output-vector-file results/nosecure_output.vec
config network LightIoTNetwork
config sim-time-limit 10s
config output-scalar-file results/attack_output.sca
config output-vector-file results/attack_output.vec
config output-scalar-file results/NoSec50_record-0.sca
config output-vector-file results/NoSec50_record-0.vec
config **.scalar-recording true
config **.vector-recording true
config output-scalar-file results/NoSec50_record-0.sca
config output-vector-file results/NoSec50_record-0.vec
config **.scalar-recording true
config **.vector-recording true

vector 0 LightIoTNetwork.cloud EndToEndDelay_s ETV
0	3	0.52021839912	0
0	6	0.556712975726	0
0	9	0.571036058711	0
0	12	0.587129296968	0
0	15	0.618274423759	0
0	18	0.640350777423	0
0	21	0.772656294517	0
0	24	0.797534605255	0
0	27	0.837396161631	0
0	30	0.868241537362	0
0	33	0.88344152132	0
0	36	0.884381708223	0
0	39	0.892784793163	0
0	42	0.923654796788	0
0	45	0.937587209977	0
0	48	0.961479362799	0
0	51	0.973608040018	0
0	54	0.977665111655	0
0	57	0.979977171402	0
0	60	1.020477480488	0
0	63	1.028894921532	0
0	66	1.044883177383	0
0	69	1.048813502304	0
0	72	1.068044563755	0
0	75	1.092844616389	0
0	78	1.102763370378	0
0	81	1.123563696397	0
0	84	1.145894115092	0
0	87	1.148171876557	0
0	90	1.178879533662	0
0	93	1.215189364972	0
0	96	1.220632651588	0
0	99	1.278156756889	0
0	102	1.280529175652	0
0	105	1.291725033429	0
0	108	1.299158563837	0
0	111	1.300910752499	0
0	114	1.312168726465	0
0	117	1.33261984284	0
0	120	1.336078768829	0
0	123	1.34426574409	0
0	126	1.347251737257	0
0	129	1.357945619849	0
0	132	1.370012145257	0
0	135	1.370087251067	0
0	138	1.391773001757	0
0	141	1.425596633228	0
0	144	1.457155154319	0
0	147	1.463662764058	0
0	150	1.478618342895	0
0	153	1.499706715811	0
0	156	1.548202602518	0
0	159	1.573116933974	0
0	162	1.594603942614	0
0	165	1.69207390151	0
0	168	1.707208207482	0
0	171	1.71871612654	0
0	174	1.777025960153	0
0	177	1.820328549855	0
0	180	1.821648177132	0
0	183	1.836352643603	0
0	186	1.862961621908	0
0	189	1.883735131006	0
0	192	1.904708746308	0
0	195	1.904789434141	0
0	198	1.928817277169	0
0	201	1.947631530464	0
0	204	1.971038432372	0
0	207	1.97481815014	0
0	210	1.985305681313	0
0	213	1.987294829683	0
0	216	2.012508840859	0
0	219	2.052422021702	0
0	222	2.071232646797	0
0	225	2.080061165989	0
0	228	2.116231416119	0
0	231	2.168869531574	0
0	234	2.184535936126	0
0	237	2.187090945384	0
0	240	2.212313311453	0
0	243	2.212955845799	0
0	246	2.219014634145	0
0	249	2.226413809368	0
0	252	2.243245343957	0
0	255	2.265563147422	0
0	258	2.281433654483	0
0	261	2.295872510737	0
0	264	2.300022132182	0
0	267	2.331251272513	0
0	270	2.341642579297	0
0	273	2.360998891294	0
0	276	2.365973185096	0
0	279	2.366706775269	0
0	282	2.37839331883	0
0	285	2.388682303159	0
0	288	2.406130540185	0
0	291	2.43640491874	0
0	294	2.441910229531	0
0	297	2.443627788406	0
0	300	2.455887687625	0
0	303	2.47872128766	0
0	306	2.513746071001	0
0	309	2.560837236653	0
0	312	2.621458753245	0
0	315	2.639125087903	0
0	318	2.762103901571	0
0	321	2.768614545837	0
0	324	2.789748667879	0
0	327	2.798998061334	0
0	330	2.807584023941	0
0	333	2.848659952544	0
0	336	2.855447754404	0
0	339	2.911690994771	0
0	342	2.914356795418	0
0	345	2.919088746979	0
0	348	2.92107881275	0
0	351	2.923703267751	0
0	354	2.940893685026	0
0	357	2.962021535029	0
0	360	2.965977933397	0
0	363	2.974497049535	0
0	366	2.980110364361	0
0	369	3.010007702513	0
0	372	3.079671765072	0
0	375	3.096506121476	0
0	378	3.106183111249	0
0	381	3.111327084387	0
0	384	3.126407416724	0
0	387	3.145959672332	0
0	390	3.184983401652	0
0	393	3.186700878944	0
0	396	3.240205032471	0
0	399	3.250470952737	0
0	402	3.251520007755	0
0	405	3.29061245555	0
0	408	3.302227521733	0
0	411	3.306002873135	0
0	414	3.317273478769	0
0	417	3.334754058392	0
0	420	3.359885222092	0
0	423	3.360437014932	0
0	426	3.363461492071	0
0	429	3.380318193184	0
0	432	3.386558845453	0
0	435	3.432142072311	0
0	438	3.436031579087	0
0	441	3.441611878807	0
0	444	3.456290784338	0
0	447	3.457374022343	0
0	450	3.484034521319	0
0	453	3.491480504675	0
0	456	3.502088255295	0
0	459	3.517398628547	0
0	462	3.563164400821	0
0	465	3.717376099341	0
0	468	3.722743604192	0
0	471	3.727842585696	0
0	474	3.733992795367	0
0	477	3.785927375127	0
0	480	3.812256587204	0
0	483	3.831918247183	0
0	486	3.845316261192	0
0	489	3.864443239383	0
0	492	3.894543592445	0
0	495	3.927574947756	0
0	498	3.931542933034	0
0	501	3.953931458155	0
0	504	3.962197691621	0
0	507	3.975341824721	0
0	510	3.981904156553	0
0	513	3.998003889992	0
0	516	4.014657313098	0
0	519	4.015294222674	0
0	522	4.038998446194	0
0	525	4.043029914052	0
0	528	4.126516383421	0
0	531	4.140527114458	0
0	534	4.14207637282	0
0	537	4.150414669933	0
0	540	4.163016356388	0
0	543	4.190414633649	0
0	546	4.216972027951	0
0	549	4.231818911899	0
0	552	4.283953027987	0
0	555	4.292635276587	0
0	558	4.297075287625	0
0	561	4.312831254955	0
0	564	4.319988423585	0
0	567	4.331662349448	0
0	570	4.33616358242	0
0	573	4.343025642401	0
0	576	4.349268312705	0
0	579	4.35831311876	0
0	582	4.369019671204	0
0	585	4.385550703202	0
0	588	4.397123142285	0
0	591	4.397620779788	0
0	594	4.413322873972	0
0	597	4.430252403486	0
0	600	4.471400222276	0
0	603	4.507399884472	0
0	606	4.51601193617	0
0	609	4.527043812536	0
0	612	4.60391185698	0
0	615	4.68043889068	0
0	618	4.720650408138	0
0	621	4.735678003077	0
0	624	4.764414903429	0
0	627	4.820280294679	0
0	630	4.824535916838	0
0	633	4.847149714361	0
0	636	4.863477925491	0
0	639	4.882851624675	0
0	642	4.898547784286	0
0	645	4.942025328055	0
0	648	4.959327149065	0
0	651	4.973751270305	0
0	654	4.987428965698	0
0	657	5.00449685948	0
0	660	5.01791527113	0
0	663	5.040508577786	0
0	666	5.049756765412	0
0	669	5.06589162657	0
0	672	5.082925769548	0
0	675	5.084575955896	0
0	678	5.10001450479	0
0	681	5.134712630976	0
0	684	5.145380384754	0
0	687	5.169715781417	0
0	690	5.195481113344	0
0	693	5.213174233865	0
0	696	5.233912282997	0
0	699	5.25205984339	0
0	702	5.259718954051	0
0	705	5.308039552067	0
0	708	5.308889851765	0
0	711	5.343229746911	0
0	714	5.353856599098	0
0	717	5.358577995375	0
0	720	5.370168667751	0
0	723	5.375660921541	0
0	726	5.381201995536	0
0	729	5.388076498686	0
0	732	5.389178326865	0
0	735	5.392296732403	0
0	738	5.413071667309	0
0	741	5.415023412276	0
0	744	5.426418819092	0
0	747	5.430882452661	0
0	750	5.476767431154	0
0	753	5.495161934477	0
0	756	5.51098544048	0
0	759	5.528678527847	0
0	762	5.597938294661	0
0	765	5.640753853926	0
0	768	5.722013104195	0
0	771	5.763865314844	0
0	774	5.767712710752	0
0	777	5.778295816667	0
0	780	5.801228362042	0
0	783	5.868605364393	0
0	786	5.869120141771	0
0	789	5.870752799743	0
0	792	5.879899821058	0
0	795	5.90590374302	0
0	798	5.913311892702	0
0	801	5.933407735871	0
0	804	5.974238222512	0
0	807	5.988724604017	0
0	810	5.989650788299	0
0	813	6.018489841791	0
0	816	6.058683130378	0
0	819	6.060120016429	0
0	822	6.080756677733	0
0	825	6.109579833503	0
0	828	6.115216118982	0
0	831	6.139733649883	0
0	834	6.155999468314	0
0	837	6.162165063574	0
0	840	6.165133285848	0
0	843	6.179170939373	0
0	846	6.193806857988	0
0	849	6.22557221772	0
0	852	6.292483553523	0
0	855	6.295212535933	0
0	858	6.305924784811	0
0	861	6.308121876	0
0	864	6.309092143829	0
0	867	6.370787230273	0
0	870	6.37757317121	0
0	873	6.383533999416	0
0	876	6.405698298848	0
0	879	6.416438638653	0
0	882	6.419816793734	0
0	885	6.420268653426	0
0	888	6.421614418551	0
0	891	6.425051595411	0
0	894	6.457871671952	0
0	897	6.476193254999	0
0	900	6.505450171557	0
0	903	6.530651853233	0
0	906	6.544995457121	0
0	909	6.573252440197	0
0	912	6.591914989332	0
0	915	6.602303739963	0
0	918	6.701082214341	0
0	921	6.703059813147	0
0	924	6.723676194251	0
0	927	6.786977228337	0
0	930	6.841306409334	0
0	933	6.857038565678	0
0	936	6.862179165939	0
0	939	6.880882699788	0
0	942	6.902558002063	0
0	945	6.914844395406	0
0	948	6.919723891885	0
0	951	6.932216591806	0
0	954	6.938207009853	0
0	957	6.94210680034	0
0	960	7.02533374154	0
0	963	7.03334128093	0
0	966	7.050828552478	0
0	969	7.057975596283	0
0	972	7.064771751267	0
0	975	7.068458879739	0
0	978	7.086165779644	0
0	981	7.127915034023	0
0	984	7.129098688253	0
0	987	7.139955326309	0
0	990	7.153990954532	0
0	993	7.213010115083	0
0	996	7.250331607973	0
0	999	7.257269365993	0
0	1002	7.267208147748	0
0	1005	7.305113165778	0
0	1008	7.327306235862	0
0	1011	7.328755954235	0
0	1014	7.345453934417	0
0	1017	7.345465893112	0
0	1020	7.354119988345	0
0	1023	7.357512472151	0
0	1026	7.359091993374	0
0	1029	7.36026795851	0
0	1032	7.387613817025	0
0	1035	7.38774132002	0
0	1038	7.392068990506	0
0	1041	7.394749488961	0
0	1044	7.403608087263	0
0	1047	7.475436789775	0
0	1050	7.498140366793	0
0	1053	7.534932795492	0
0	1056	7.542322775907	0
0	1059	7.619910049532	0
0	1062	7.68073893953	0
0	1065	7.687919998495	0
0	1068	7.693345013122	0
0	1071	7.722732787859	0
0	1074	7.743007276813	0
0	1077	7.743942693015	0
0	1080	7.789977396978	0
0	1083	7.812632013812	0
0	1086	7.862184424698	0
0	1089	7.879795154788	0
0	1092	7.898035258941	0
0	1095	7.90517838113	0
0	1098	7.930290112458	0
0	1101	7.959543507406	0
0	1104	7.978786248341	0
0	1107	8.028949600691	0
0	1110	8.036686288984	0
0	1113	8.056134471437	0
0	1116	8.06510215574	0
0	1119	8.086440875288	0
0	1122	8.086646676109	0
0	1125	8.102344325417	0
0	1128	8.136334629032	0
0	1131	8.137628039763	0
0	1134	8.164839441747	0
0	1137	8.173939439281	0
0	1140	8.19265432856	0
0	1143	8.19280970837	0
0	1146	8.199238116807	0
0	1149	8.211696792441	0
0	1152	8.221996641393	0
0	1155	8.242351766861	0
0	1158	8.271056109435	0
0	1161	8.305750884348	0
0	1164	8.306355321454	0
0	1167	8.309128103917	0
0	1170	8.314891754183	0
0	1173	8.338612616573	0
0	1176	8.344541795971	0
0	1179	8.355604232522	0
0	1182	8.359368640789	0
0	1185	8.393376052426	0
0	1188	8.417630431942	0
0	1191	8.423722755862	0
0	1194	8.453139330353	0
0	1197	8.462320115557	0
0	1200	8.495707907992	0
0	1203	8.497291970857	0
0	1206	8.618523687636	0
0	1209	8.64887843877	0
0	1212	8.658653523354	0
0	1215	8.659178746678	0
0	1218	8.663470365945	0
0	1221	8.716876596958	0
0	1224	8.726081939974	0
0	1227	8.751507032197	0
0	1230	8.77601981759	0
0	1233	8.860900113592	0
0	1236	8.893754524227	0
0	1239	8.895917749032	0
0	1242	8.910951333167	0
0	1245	8.915673709939	0
0	1248	8.965706427721	0
0	1251	8.966859349142	0
0	1254	9.000195260532	0
0	1257	9.029820271488	0
0	1260	9.059001593246	0
0	1263	9.077849600789	0
0	1266	9.07806964023	0
0	1269	9.079625675547	0
0	1272	9.090292515372	0
0	1275	9.092283525922	0
0	1278	9.108283858746	0
0	1281	9.13495996613	0
0	1284	9.138498193165	0
0	1287	9.154202260636	0
0	1290	9.175700221397	0
0	1293	9.217618246797	0
0	1296	9.219044545106	0
0	1299	9.244485438755	0
0	1302	9.244552866044	0
0	1305	9.271291915979	0
0	1308	9.275555197616	0
0	1311	9.300213029376	0
0	1314	9.302881636844	0
0	1317	9.318833992629	0
0	1320	9.32174068489	0
0	1323	9.323414307832	0
0	1326	9.348084459081	0
0	1329	9.364408986362	0
0	1332	9.375337795447	0
0	1335	9.399447304197	0
0	1338	9.402720739414	0
0	1341	9.430134364032	0
0	1344	9.483332121931	0
0	1347	9.530206863209	0
0	1350	9.531683798971	0
0	1353	9.587850302503	0
0	1356	9.602280282229	0
0	1359	9.609749642107	0
0	1362	9.655335246865	0
0	1365	9.671970305779	0
0	1368	9.686376093327	0
0	1371	9.721218250226	0
0	1374	9.797678192705	0
0	1377	9.806350715878	0
0	1380	9.811688442668	0
0	1383	9.83858014401	0
0	1386	9.852079338487	0
0	1389	9.856493003715	0
0	1392	9.871991891832	0
0	1395	9.919313852208	0
0	1398	9.960056742886	0
0	1401	9.971314287232	0
0	1404	9.989740453941	0

