version 3
run NoSec20_record-0-20250829-01:43:57-79549
attr configname NoSec20_record
attr datetime 20250829-01:43:57
attr datetimef 20250829-014357
attr experiment NoSec20_record
attr inifile run_record.ini
attr iterationvars ""
attr iterationvarsd ""
attr iterationvarsf ""
attr measurement ""
attr network ned.LightIoTNetwork
attr processid 79549
attr repetition 0
attr replication #0
attr resultdir results
attr runnumber 0
attr seedset 2
config output-scalar-file results/NoSec20_record-rep2.sca
config output-vector-file results/NoSec20_record-rep2.vec
config seed-set 2
config network ned.LightIoTNetwork
config output-scalar-file results/NoSec20_record-0.sca
config output-vector-file results/NoSec20_record-0.vec
config **.scalar-recording true
config **.vector-recording true
config **.result-recording-modes all
config LightIoTNetwork.numSensorNodes 20
config **.fakeNode.enabled false
config **.gateway.securityEnabled false
config **.gateway.procDelay 0s
config **.gateway.costForward_mJ 5
config **.gateway.costVerify_mJ 0
config **.gateway.batteryInit_mJ 5000
config sim-time-limit 10s
config description "Secure Mode Simulation (includes all scenarios)"
config network ned.LightIoTNetwork
config ned-path .
config sim-time-limit 10s
config record-eventlog true
config cmdenv-express-mode false
config network ned.LightIoTNetwork
config sim-time-limit 10s
config output-scalar-file results/secure_output.sca
config output-vector-file results/secure_output.vec
config network LightIoTNetwork
config sim-time-limit 10s
config output-scalar-file results/nosecure_output.sca
config output-vector-file results/nosecure_output.vec
config network LightIoTNetwork
config sim-time-limit 10s
config output-scalar-file results/attack_output.sca
config output-vector-file results/attack_output.vec
config output-scalar-file results/NoSec20_record-0.sca
config output-vector-file results/NoSec20_record-0.vec
config **.scalar-recording true
config **.vector-recording true
config **.statistic-recording true
config **.result-recording-modes all
config rng-class cMersenneTwister
config num-rngs 1
config seed-set 123

vector 0 LightIoTNetwork.cloud EndToEndDelay_s ETV
0	3	0.525926227914	2.27914e-07
0	6	0.619950543856	-4.56144e-07
0	9	0.654426675523	-3.24477e-07
0	12	0.685082081473	8.1473e-08
0	15	0.704648636049	-3.63951e-07
0	18	0.766827276442	2.76442e-07
0	21	0.799654677277	-3.22723e-07
0	24	0.82053643628	4.3628e-07
0	27	0.830334820319	-1.79681e-07
0	30	0.920367801562	-1.98438e-07
0	33	0.935322393198	3.93198e-07
0	36	0.935994902626	-9.7374e-08
0	39	0.984749096213	9.6213e-08
0	42	0.98517591483	-8.517e-08
0	45	1.04966247594	4.7594e-07
0	48	1.119270970346	-2.9654e-08
0	51	1.13273773063	-2.6937e-07
0	54	1.198862689314	-3.10686e-07
0	57	1.431540863588	-1.36412e-07
0	60	1.447730610846	-3.89154e-07
0	63	1.550152994552	-5.448e-09
0	66	1.631564624515	-3.75485e-07
0	69	1.660255093593	9.3593e-08
0	72	1.68359588827	-1.1173e-07
0	75	1.72168728048	2.8048e-07
0	78	1.766539509967	-4.90033e-07
0	81	1.767222792888	-2.07112e-07
0	84	1.802370300842	3.00842e-07
0	87	1.837895832071	-1.67929e-07
0	90	1.88769451892	-4.8108e-07
0	93	1.964318647748	-3.52252e-07
0	96	1.992389422702	4.22702e-07
0	99	1.994417378121	3.78121e-07
0	102	2.04850984402	-1.5598e-07
0	105	2.055544154393	1.54393e-07
0	108	2.100732536846	-4.63154e-07
0	111	2.134259614069	-3.85931e-07
0	114	2.202050028881	2.8881e-08
0	117	2.347469957778	-4.2222e-08
0	120	2.541657092376	9.2376e-08
0	123	2.55120221232	2.1232e-07
0	126	2.573312394321	3.94321e-07
0	129	2.590968296491	2.96491e-07
0	132	2.64116965225	-3.4775e-07
0	135	2.686528977193	-2.2807e-08
0	138	2.689778174507	1.74507e-07
0	141	2.707311746711	-2.53289e-07
0	144	2.738715708302	-2.91698e-07
0	147	2.76332782642	-1.7358e-07
0	150	2.886552472506	4.72506e-07
0	153	2.939619778749	-2.21251e-07
0	156	2.976933291322	2.91322e-07
0	159	2.983667709353	-2.90647e-07
0	162	2.992876877449	-1.22551e-07
0	165	3.005542448769	4.48769e-07
0	168	3.078320855321	-1.44679e-07
0	171	3.154230772144	-2.27856e-07
0	174	3.21751164291	-3.5709e-07
0	177	3.317435214855	2.14855e-07
0	180	3.475221755263	-2.44737e-07
0	183	3.531316941884	-5.8116e-08
0	186	3.544759709341	-2.90659e-07
0	189	3.546806668118	-3.31882e-07
0	192	3.634904368734	3.68734e-07
0	195	3.703925713059	-2.86941e-07
0	198	3.714610322472	3.22472e-07
0	201	3.720631410927	4.10927e-07
0	204	3.764375169808	1.69808e-07
0	207	3.797333656903	-3.43097e-07
0	210	3.916998308851	3.08851e-07
0	213	3.919164831611	-1.68389e-07
0	216	3.999539230066	2.30066e-07
0	219	4.002217815164	-1.84836e-07
0	222	4.021543285344	2.85344e-07
0	225	4.042395199882	1.99882e-07
0	228	4.086690492787	4.92787e-07
0	231	4.091047276835	2.76835e-07
0	234	4.147224598983	-4.01017e-07
0	237	4.357585683558	-3.16442e-07
0	240	4.545677961875	-3.8125e-08
0	243	4.546664885291	-1.14709e-07
0	246	4.546808340913	3.40913e-07
0	249	4.578358352697	3.52697e-07
0	252	4.624227158353	1.58353e-07
0	255	4.688954142202	1.42202e-07
0	258	4.727434666036	-3.33964e-07
0	261	4.78182972488	-2.7512e-07
0	264	4.810762482416	4.82416e-07
0	267	4.813263580855	-4.19145e-07
0	270	4.868744943059	-5.6941e-08
0	273	4.904674024461	2.4461e-08
0	276	4.989567267615	2.67615e-07
0	279	4.992278360017	3.60017e-07
0	282	5.061374287075	2.87075e-07
0	285	5.080258991102	-8.898e-09
0	288	5.097707037488	3.7488e-08
0	291	5.09816811215	1.1215e-07
0	294	5.102059249673	2.49673e-07
0	297	5.448334128037	1.28037e-07
0	300	5.494777336857	3.36857e-07
0	303	5.555506516387	-4.83613e-07
0	306	5.605318039656	3.9656e-08
0	309	5.609636024293	2.4293e-08
0	312	5.662222621357	-3.78643e-07
0	315	5.713845243026	2.43026e-07
0	318	5.79201159305	-4.0695e-07
0	321	5.794518590486	-4.09514e-07
0	324	5.810114497692	4.97692e-07
0	327	5.812944573956	-4.26044e-07
0	330	5.813790306775	3.06775e-07
0	333	5.851999825286	-1.74714e-07
0	336	5.941713807406	-1.92594e-07
0	339	5.993687864764	-1.35236e-07
0	342	6.038893550215	-4.49785e-07
0	345	6.047681841069	-1.58931e-07
0	348	6.175367786782	-2.13218e-07
0	351	6.190297910245	-8.9755e-08
0	354	6.196938514242	-4.85758e-07
0	357	6.495379786846	-2.13154e-07
0	360	6.542450190987	1.90987e-07
0	363	6.615558186499	1.86499e-07
0	366	6.629999447987	4.47987e-07
0	369	6.645726447041	4.47041e-07
0	372	6.703531021764	2.1764e-08
0	375	6.728363679629	-3.20371e-07
0	378	6.76683721561	2.1561e-07
0	381	6.77154922043	2.2043e-07
0	384	6.788215944078	-5.5922e-08
0	387	6.798994812183	-1.87817e-07
0	390	6.856813200936	2.00936e-07
0	393	6.90217724368	2.4368e-07
0	396	6.906288650818	-3.49182e-07
0	399	6.956817634079	-3.65921e-07
0	402	6.965012720831	-2.79169e-07
0	405	7.09127954999	-4.5001e-07
0	408	7.239181962421	-3.7579e-08
0	411	7.261893498944	4.98944e-07
0	414	7.286928598629	-4.01371e-07
0	417	7.483650770412	-2.29588e-07
0	420	7.545936343213	3.43213e-07
0	423	7.610434710421	-2.89579e-07
0	426	7.616358274314	2.74314e-07
0	429	7.680312629929	-3.70071e-07
0	432	7.706893767836	-2.32164e-07
0	435	7.714257790939	-2.09061e-07
0	438	7.748927197233	1.97233e-07
0	441	7.767002602341	-3.97659e-07
0	444	7.78156571528	-2.8472e-07
0	447	7.807397535024	-4.64976e-07
0	450	7.865398192173	1.92173e-07
0	453	7.932659747406	-2.52594e-07
0	456	7.942122550635	-4.49365e-07
0	459	7.94952665586	-3.4414e-07
0	462	7.99388301759	1.759e-08
0	465	8.010712421311	4.21311e-07
0	468	8.210332687197	-3.12803e-07
0	471	8.229515247047	2.47047e-07
0	474	8.321374487644	4.87644e-07
0	477	8.437528530649	-4.69351e-07
0	480	8.518341824552	-1.75448e-07
0	483	8.585422818968	-1.81032e-07
0	486	8.626971688215	-3.11785e-07
0	489	8.6795589461	-5.39e-08
0	492	8.692018332052	3.32052e-07
0	495	8.744507287816	2.87816e-07
0	498	8.746698195347	1.95347e-07
0	501	8.74956858065	-4.1935e-07
0	504	8.80681229406	2.9406e-07
0	507	8.835063367012	3.67012e-07
0	510	8.915640914069	-8.5931e-08
0	513	8.919701036298	3.6298e-08
0	516	8.948293306539	3.06539e-07
0	519	8.976232305728	3.05728e-07
0	522	9.007396151778	1.51778e-07
0	525	9.020908002274	2.274e-09
0	528	9.236501218423	2.18423e-07
0	531	9.289756808709	-1.91291e-07
0	534	9.324097385211	3.85211e-07
0	537	9.36008377378	-2.2622e-07
0	540	9.494680412253	4.12253e-07
0	543	9.548074523546	-4.76454e-07
0	546	9.587918487471	4.87471e-07
0	549	9.719463603339	-3.96661e-07
0	552	9.721421177219	1.77219e-07
0	555	9.777990516602	-4.83398e-07
0	558	9.781071057404	5.7404e-08
0	561	9.792187238765	2.38765e-07
0	564	9.838267329707	3.29707e-07
0	567	9.86151810689	1.0689e-07
0	570	9.867502719909	-2.80091e-07
0	573	9.903051723679	-2.76321e-07

