version 3
run NoSec20_record-0-20250819-01:19:19-4240
attr configname NoSec20_record
attr datetime 20250819-01:19:19
attr datetimef 20250819-011919
attr experiment NoSec20_record
attr inifile run_record.ini
attr iterationvars ""
attr iterationvarsd ""
attr iterationvarsf ""
attr measurement ""
attr network ned.LightIoTNetwork
attr processid 4240
attr repetition 0
attr replication #0
attr resultdir results
attr runnumber 0
attr seedset 0
config network ned.LightIoTNetwork
config output-scalar-file results/NoSec20_record-0.sca
config output-vector-file results/NoSec20_record-0.vec
config **.scalar-recording true
config **.vector-recording true
config **.result-recording-modes all
config LightIoTNetwork.numSensorNodes 20
config **.fakeNode.enabled false
config **.gateway.securityEnabled false
config **.gateway.procDelay 0s
config **.gateway.costForward_mJ 5
config **.gateway.costVerify_mJ 0
config **.gateway.batteryInit_mJ 5000
config sim-time-limit 10s
config description "Secure Mode Simulation (includes all scenarios)"
config network ned.LightIoTNetwork
config ned-path .:ned
config sim-time-limit 10s
config record-eventlog true
config cmdenv-express-mode false
config network ned.LightIoTNetwork
config sim-time-limit 10s
config output-scalar-file results/secure_output.sca
config output-vector-file results/secure_output.vec
config network LightIoTNetwork
config sim-time-limit 10s
config output-scalar-file results/nosecure_output.sca
config output-vector-file results/nosecure_output.vec
config network LightIoTNetwork
config sim-time-limit 10s
config output-scalar-file results/attack_output.sca
config output-vector-file results/attack_output.vec
config output-scalar-file results/NoSec20_record-0.sca
config output-vector-file results/NoSec20_record-0.vec
config **.scalar-recording true
config **.vector-recording true
config output-scalar-file results/NoSec20_record-0.sca
config output-vector-file results/NoSec20_record-0.vec
config **.scalar-recording true
config **.vector-recording true

vector 0 LightIoTNetwork.cloud EndToEndDelay_s ETV
0	3	0.556712975726	0
0	6	0.772656294517	0
0	9	0.797534605255	0
0	12	0.88344152132	0
0	15	0.884381708223	0
0	18	0.923654796788	0
0	21	0.937587209977	0
0	24	0.977665111655	0
0	27	1.044883177383	0
0	30	1.048813502304	0
0	33	1.092844616389	0
0	36	1.102763370378	0
0	39	1.123563696397	0
0	42	1.145894115092	0
0	45	1.215189364972	0
0	48	1.34426574409	0
0	51	1.347251737257	0
0	54	1.357945619849	0
0	57	1.391773001757	0
0	60	1.463662764058	0
0	63	1.615057982412	0
0	66	1.803313589561	0
0	69	1.83509003981	0
0	72	1.8794369556	0
0	75	1.897990620974	0
0	78	1.902211755421	0
0	81	1.959090389125	0
0	84	2.010270475783	0
0	87	2.01629273463	0
0	90	2.022706536623	0
0	93	2.027607376221	0
0	96	2.044880865421	0
0	99	2.119542422564	0
0	102	2.132397745689	0
0	105	2.28171333354	0
0	108	2.286015775334	0
0	111	2.402883088635	0
0	114	2.435696774954	0
0	117	2.465775430808	0
0	120	2.537680214271	0
0	123	2.710781650991	0
0	126	2.798035197565	0
0	129	2.890286493534	0
0	132	2.894921752577	0
0	135	2.906307251519	0
0	138	2.9396191061	0
0	141	2.939947619382	0
0	144	3.015196224255	0
0	147	3.046046382515	0
0	150	3.048213079664	0
0	153	3.055591579619	0
0	156	3.061284823669	0
0	159	3.066833066941	0
0	162	3.139872391335	0
0	165	3.337738899421	0
0	168	3.356878296239	0
0	171	3.370647117263	0
0	174	3.407252754271	0
0	177	3.448707819032	0
0	180	3.532400298817	0
0	183	3.663692773274	0
0	186	3.735301666474	0
0	189	3.882929177442	0
0	192	3.897537318711	0
0	195	3.942239858908	0
0	198	3.942305388161	0
0	201	3.945133230835	0
0	204	3.949804342119	0
0	207	3.953634409047	0
0	210	3.991219796426	0
0	213	4.013041280489	0
0	216	4.079118679789	0
0	219	4.084336668439	0
0	222	4.089252211434	0
0	225	4.33417609185	0
0	228	4.361125699151	0
0	231	4.459396732319	0
0	234	4.485071878601	0
0	237	4.487772448547	0
0	240	4.522390296729	0
0	243	4.635594353686	0
0	246	4.757914358843	0
0	249	4.857178324135	0
0	252	4.862161458469	0
0	255	4.870335567975	0
0	258	4.978007034353	0
0	261	4.981766097992	0
0	264	4.986987751303	0
0	267	5.013300597015	0
0	270	5.021847802866	0
0	273	5.026413180772	0
0	276	5.043766155839	0
0	279	5.047168855229	0
0	282	5.060882645474	0
0	285	5.25996135152	0
0	288	5.411262926925	0
0	291	5.42248240225	0
0	294	5.460514603229	0
0	297	5.48739974224	0
0	300	5.506638011942	0
0	303	5.649633708876	0
0	306	5.66559944395	0
0	309	5.844898626814	0
0	312	5.8890162691	0
0	315	5.902175059355	0
0	318	5.955075948731	0
0	321	5.958675083006	0
0	324	5.968010334344	0
0	327	6.017545815091	0
0	330	6.048859578278	0
0	333	6.069796888205	0
0	336	6.077252711916	0
0	339	6.077790519641	0
0	342	6.14282606896	0
0	345	6.210619671783	0
0	348	6.394136644527	0
0	351	6.415744556812	0
0	354	6.436284859851	0
0	357	6.455454104254	0
0	360	6.531340033142	0
0	363	6.581427626172	0
0	366	6.633200967452	0
0	369	6.766973654647	0
0	372	6.886311672908	0
0	375	6.918516297684	0
0	378	6.923966733552	0
0	381	6.933440977753	0
0	384	6.956862286431	0
0	387	7.023679430689	0
0	390	7.04354192135	0
0	393	7.045540397335	0
0	396	7.109758085526	0
0	399	7.130039926013	0
0	402	7.138773788558	0
0	405	7.141989165823	0
0	408	7.374673784478	0
0	411	7.418705863179	0
0	414	7.471016786061	0
0	417	7.483333538146	0
0	420	7.625729032932	0
0	423	7.676719519216	0
0	426	7.708839661163	0
0	429	7.76070389431	0
0	432	7.835109672136	0
0	435	7.888236547262	0
0	438	7.947094129211	0
0	441	7.947539455817	0
0	444	7.953377955128	0
0	447	7.954410081356	0
0	450	8.013868515844	0
0	453	8.066028478741	0
0	456	8.071532146958	0
0	459	8.086601317907	0
0	462	8.09810026982	0
0	465	8.234691134654	0
0	468	8.346562678274	0
0	471	8.377933903038	0
0	474	8.407079081004	0
0	477	8.467195493309	0
0	480	8.640316153876	0
0	483	8.663461270183	0
0	486	8.743556491984	0
0	489	8.784934839793	0
0	492	8.801066047466	0
0	495	8.890458555844	0
0	498	8.91875676671	0
0	501	8.966415728257	0
0	504	8.967730371048	0
0	507	8.986033879687	0
0	510	9.019106376962	0
0	513	9.07332593915	0
0	516	9.086889028641	0
0	519	9.091250928492	0
0	522	9.153479235852	0
0	525	9.181444861136	0
0	528	9.323701578332	0
0	531	9.393123202072	0
0	534	9.430794200674	0
0	537	9.553054732876	0
0	540	9.595859866682	0
0	543	9.627175061172	0
0	546	9.645427832333	0
0	549	9.816818128245	0
0	552	9.818416915043	0
0	555	9.869534463296	0
0	558	9.943915097882	0
0	561	9.948191594425	0
0	564	9.972052409825	0

