version 3
run Secure20_record-0-20250819-01:19:18-4234
attr configname Secure20_record
attr datetime 20250819-01:19:18
attr datetimef 20250819-011918
attr experiment Secure20_record
attr inifile run_record.ini
attr iterationvars ""
attr iterationvarsd ""
attr iterationvarsf ""
attr measurement ""
attr network ned.LightIoTNetwork
attr processid 4234
attr repetition 0
attr replication #0
attr resultdir results
attr runnumber 0
attr seedset 0
config network ned.LightIoTNetwork
config output-scalar-file results/Secure20_record-0.sca
config output-vector-file results/Secure20_record-0.vec
config **.scalar-recording true
config **.vector-recording true
config **.result-recording-modes all
config LightIoTNetwork.numSensorNodes 20
config **.fakeNode.enabled false
config **.gateway.securityEnabled true
config **.gateway.hmacWindow 1s
config **.gateway.procDelay 1ms
config **.gateway.costForward_mJ 5
config **.gateway.costVerify_mJ 5
config **.gateway.batteryInit_mJ 5000
config sim-time-limit 10s
config description "Secure Mode Simulation (includes all scenarios)"
config network ned.LightIoTNetwork
config ned-path .:ned
config sim-time-limit 10s
config record-eventlog true
config cmdenv-express-mode false
config network ned.LightIoTNetwork
config sim-time-limit 10s
config output-scalar-file results/secure_output.sca
config output-vector-file results/secure_output.vec
config network LightIoTNetwork
config sim-time-limit 10s
config output-scalar-file results/nosecure_output.sca
config output-vector-file results/nosecure_output.vec
config network LightIoTNetwork
config sim-time-limit 10s
config output-scalar-file results/attack_output.sca
config output-vector-file results/attack_output.vec
config output-scalar-file results/Secure20_record-0.sca
config output-vector-file results/Secure20_record-0.vec
config **.scalar-recording true
config **.vector-recording true
config output-scalar-file results/Secure20_record-0.sca
config output-vector-file results/Secure20_record-0.vec
config **.scalar-recording true
config **.vector-recording true

vector 0 LightIoTNetwork.cloud EndToEndDelay_s ETV
0	3	0.557712975726	0.001
0	6	0.773656294517	0.001
0	9	0.798534605255	0.001
0	14	0.88444152132	0.001
0	15	0.885381708223	0.001
0	18	0.924654796788	0.001
0	21	0.938587209977	0.001
0	24	0.978665111655	0.001
0	27	1.045883177383	0.001
0	30	1.049813502304	0.001
0	33	1.093844616389	0.001
0	36	1.103763370378	0.001
0	39	1.124563696397	0.001
0	42	1.146894115092	0.001
0	45	1.216189364972	0.001
0	48	1.34526574409	0.001
0	51	1.348251737257	0.001
0	54	1.358945619849	0.001
0	57	1.392773001757	0.001
0	60	1.464662764058	0.001
0	63	1.616057982412	0.001
0	66	1.804313589561	0.001
0	69	1.83609003981	0.001
0	72	1.8804369556	0.001
0	75	1.898990620974	0.001
0	78	1.903211755421	0.001
0	81	1.960090389125	0.001
0	84	2.011270475783	0.001
0	87	2.01729273463	0.001
0	90	2.023706536623	0.001
0	93	2.028607376221	0.001
0	96	2.045880865421	0.001
0	99	2.120542422564	0.001
0	102	2.133397745689	0.001
0	105	2.28271333354	0.001
0	108	2.287015775334	0.001
0	111	2.403883088635	0.001
0	114	2.436696774954	0.001
0	117	2.466775430808	0.001
0	120	2.538680214271	0.001
0	123	2.711781650991	0.001
0	126	2.799035197565	0.001
0	129	2.891286493534	0.001
0	132	2.895921752577	0.001
0	135	2.907307251519	0.001
0	140	2.9406191061	0.001
0	141	2.940947619382	0.001
0	144	3.016196224255	0.001
0	147	3.047046382515	0.001
0	150	3.049213079664	0.001
0	153	3.056591579619	0.001
0	156	3.062284823669	0.001
0	159	3.067833066941	0.001
0	162	3.140872391335	0.001
0	165	3.338738899421	0.001
0	168	3.357878296239	0.001
0	171	3.371647117263	0.001
0	174	3.408252754271	0.001
0	177	3.449707819032	0.001
0	180	3.533400298817	0.001
0	183	3.664692773274	0.001
0	186	3.736301666474	0.001
0	189	3.883929177442	0.001
0	192	3.898537318711	0.001
0	197	3.943239858908	0.001
0	198	3.943305388161	0.001
0	201	3.946133230835	0.001
0	204	3.950804342119	0.001
0	207	3.954634409047	0.001
0	210	3.992219796426	0.001
0	213	4.014041280489	0.001
0	216	4.080118679789	0.001
0	219	4.085336668439	0.001
0	222	4.090252211434	0.001
0	225	4.33517609185	0.001
0	228	4.362125699151	0.001
0	231	4.460396732319	0.001
0	234	4.486071878601	0.001
0	237	4.488772448547	0.001
0	240	4.523390296729	0.001
0	243	4.636594353686	0.001
0	246	4.758914358843	0.001
0	249	4.858178324135	0.001
0	252	4.863161458469	0.001
0	255	4.871335567975	0.001
0	258	4.979007034353	0.001
0	261	4.982766097992	0.001
0	264	4.987987751303	0.001
0	267	5.014300597015	0.001
0	270	5.022847802866	0.001
0	273	5.027413180772	0.001
0	276	5.044766155839	0.001
0	279	5.048168855229	0.001
0	282	5.061882645474	0.001
0	285	5.26096135152	0.001
0	288	5.412262926925	0.001
0	291	5.42348240225	0.001
0	294	5.461514603229	0.001
0	297	5.48839974224	0.001
0	300	5.507638011942	0.001
0	303	5.650633708876	0.001
0	306	5.66659944395	0.001
0	309	5.845898626814	0.001
0	312	5.8900162691	0.001
0	315	5.903175059355	0.001
0	318	5.956075948731	0.001
0	321	5.959675083006	0.001
0	324	5.969010334344	0.001
0	327	6.018545815091	0.001
0	330	6.049859578278	0.001
0	333	6.070796888205	0.001
0	338	6.078252711916	0.001
0	339	6.078790519641	0.001
0	342	6.14382606896	0.001
0	345	6.211619671783	0.001
0	348	6.395136644527	0.001
0	351	6.416744556812	0.001
0	354	6.437284859851	0.001
0	357	6.456454104254	0.001
0	360	6.532340033142	0.001
0	363	6.582427626172	0.001
0	366	6.634200967452	0.001
0	369	6.767973654647	0.001
0	372	6.887311672908	0.001
0	375	6.919516297684	0.001
0	378	6.924966733552	0.001
0	381	6.934440977753	0.001
0	384	6.957862286431	0.001
0	387	7.024679430689	0.001
0	390	7.04454192135	0.001
0	393	7.046540397335	0.001
0	396	7.110758085526	0.001
0	399	7.131039926013	0.001
0	402	7.139773788558	0.001
0	405	7.142989165823	0.001
0	408	7.375673784478	0.001
0	411	7.419705863179	0.001
0	414	7.472016786061	0.001
0	417	7.484333538146	0.001
0	420	7.626729032932	0.001
0	423	7.677719519216	0.001
0	426	7.709839661163	0.001
0	429	7.76170389431	0.001
0	432	7.836109672136	0.001
0	435	7.889236547262	0.001
0	440	7.948094129211	0.001
0	441	7.948539455817	0.001
0	444	7.954377955128	0.001
0	447	7.955410081356	0.001
0	450	8.014868515844	0.001
0	453	8.067028478741	0.001
0	456	8.072532146958	0.001
0	459	8.087601317907	0.001
0	462	8.09910026982	0.001
0	465	8.235691134654	0.001
0	468	8.347562678274	0.001
0	471	8.378933903038	0.001
0	474	8.408079081004	0.001
0	477	8.468195493309	0.001
0	480	8.641316153876	0.001
0	483	8.664461270183	0.001
0	486	8.744556491984	0.001
0	489	8.785934839793	0.001
0	492	8.802066047466	0.001
0	495	8.891458555844	0.001
0	498	8.91975676671	0.001
0	501	8.967415728257	0.001
0	504	8.968730371048	0.001
0	507	8.987033879687	0.001
0	510	9.020106376962	0.001
0	513	9.07432593915	0.001
0	516	9.087889028641	0.001
0	519	9.092250928492	0.001
0	522	9.154479235852	0.001
0	525	9.182444861136	0.001
0	528	9.324701578332	0.001
0	531	9.394123202072	0.001
0	534	9.431794200674	0.001
0	537	9.554054732876	0.001
0	540	9.596859866682	0.001
0	543	9.628175061172	0.001
0	546	9.646427832333	0.001
0	549	9.817818128245	0.001
0	552	9.819416915043	0.001
0	555	9.870534463296	0.001
0	558	9.944915097882	0.001
0	561	9.949191594425	0.001
0	564	9.973052409825	0.001

