version 3
run Secure50_record-0-20250829-01:43:56-78862
attr configname Secure50_record
attr datetime 20250829-01:43:56
attr datetimef 20250829-014356
attr experiment Secure50_record
attr inifile run_record.ini
attr iterationvars ""
attr iterationvarsd ""
attr iterationvarsf ""
attr measurement ""
attr network ned.LightIoTNetwork
attr processid 78862
attr repetition 0
attr replication #0
attr resultdir results
attr runnumber 0
attr seedset 0
config output-scalar-file results/Secure50_record-rep0.sca
config output-vector-file results/Secure50_record-rep0.vec
config seed-set 0
config network ned.LightIoTNetwork
config output-scalar-file results/Secure50_record-0.sca
config output-vector-file results/Secure50_record-0.vec
config **.scalar-recording true
config **.vector-recording true
config **.result-recording-modes all
config LightIoTNetwork.numSensorNodes 50
config **.fakeNode.enabled false
config **.gateway.securityEnabled true
config **.gateway.hmacWindow 1s
config **.gateway.procDelay 1ms
config **.gateway.costForward_mJ 5
config **.gateway.costVerify_mJ 5
config **.gateway.batteryInit_mJ 5000
config sim-time-limit 10s
config description "Secure Mode Simulation (includes all scenarios)"
config network ned.LightIoTNetwork
config ned-path .
config sim-time-limit 10s
config record-eventlog true
config cmdenv-express-mode false
config network ned.LightIoTNetwork
config sim-time-limit 10s
config output-scalar-file results/secure_output.sca
config output-vector-file results/secure_output.vec
config network LightIoTNetwork
config sim-time-limit 10s
config output-scalar-file results/nosecure_output.sca
config output-vector-file results/nosecure_output.vec
config network LightIoTNetwork
config sim-time-limit 10s
config output-scalar-file results/attack_output.sca
config output-vector-file results/attack_output.vec
config output-scalar-file results/Secure50_record-0.sca
config output-vector-file results/Secure50_record-0.vec
config **.scalar-recording true
config **.vector-recording true
config **.statistic-recording true
config **.result-recording-modes all
config rng-class cMersenneTwister
config num-rngs 1
config seed-set 123

vector 0 LightIoTNetwork.cloud EndToEndDelay_s ETV
0	3	0.52121839912	0.00100039912
0	6	0.557712975726	0.000999975726
0	9	0.572036058711	0.001000058711
0	12	0.588129296968	0.001000296968
0	15	0.619274423759	0.001000423759
0	18	0.641350777423	0.000999777423
0	21	0.773656294517	0.001000294517
0	24	0.798534605255	0.000999605255
0	27	0.838396161631	0.001000161631
0	30	0.869241537362	0.000999537362
0	35	0.88444152132	0.00099952132
0	36	0.885381708223	0.000999708223
0	39	0.893784793163	0.000999793163
0	42	0.924654796788	0.000999796788
0	45	0.938587209977	0.001000209977
0	48	0.962479362799	0.001000362799
0	51	0.974608040018	0.001000040018
0	54	0.978665111655	0.001000111655
0	57	0.980977171402	0.001000171402
0	60	1.021477480488	0.001000480488
0	63	1.029894921532	0.000999921532
0	66	1.045883177383	0.001000177383
0	69	1.049813502304	0.000999502304
0	72	1.069044563755	0.000999563755
0	75	1.093844616389	0.000999616389
0	78	1.103763370378	0.001000370378
0	81	1.124563696397	0.000999696397
0	84	1.146894115092	0.001000115092
0	87	1.149171876557	0.000999876557
0	90	1.179879533662	0.000999533662
0	93	1.216189364972	0.001000364972
0	96	1.221632651588	0.000999651588
0	99	1.279156756889	0.000999756889
0	102	1.281529175652	0.001000175652
0	105	1.292725033429	0.001000033429
0	108	1.300158563837	0.000999563837
0	111	1.301910752499	0.000999752499
0	114	1.313168726465	0.000999726465
0	117	1.33361984284	0.00099984284
0	120	1.337078768829	0.000999768829
0	123	1.34526574409	0.00099974409
0	126	1.348251737257	0.000999737257
0	129	1.358945619849	0.000999619849
0	134	1.371012145257	0.001000145257
0	135	1.371087251067	0.001000251067
0	138	1.392773001757	0.001000001757
0	141	1.426596633228	0.000999633228
0	144	1.458155154319	0.001000154319
0	147	1.464662764058	0.000999764058
0	150	1.479618342895	0.001000342895
0	153	1.500706715811	0.000999715811
0	156	1.549202602518	0.000999602518
0	159	1.574116933974	0.000999933974
0	162	1.595603942614	0.000999942614
0	165	1.69307390151	0.00099990151
0	168	1.708208207482	0.001000207482
0	171	1.71971612654	0.00100012654
0	174	1.778025960153	0.000999960153
0	177	1.821328549855	0.000999549855
0	180	1.822648177132	0.001000177132
0	183	1.837352643603	0.000999643603
0	186	1.863961621908	0.000999621908
0	189	1.884735131006	0.001000131006
0	194	1.905708746308	0.000999746308
0	195	1.905789434141	0.001000434141
0	198	1.929817277169	0.001000277169
0	201	1.948631530464	0.000999530464
0	204	1.972038432372	0.001000432372
0	207	1.97581815014	0.00100015014
0	210	1.986305681313	0.000999681313
0	213	1.988294829683	0.000999829683
0	216	2.013508840859	0.000999840859
0	219	2.053422021702	0.001000021702
0	222	2.072232646797	0.000999646797
0	225	2.081061165989	0.001000165989
0	228	2.117231416119	0.001000416119
0	231	2.169869531574	0.000999531574
0	234	2.185535936126	0.000999936126
0	237	2.188090945384	0.000999945384
0	242	2.213313311453	0.001000311453
0	243	2.213955845799	0.000999845799
0	246	2.220014634145	0.000999634145
0	249	2.227413809368	0.000999809368
0	252	2.244245343957	0.001000343957
0	255	2.266563147422	0.001000147422
0	258	2.282433654483	0.000999654483
0	261	2.296872510737	0.000999510737
0	264	2.301022132182	0.001000132182
0	267	2.332251272513	0.001000272513
0	270	2.342642579297	0.000999579297
0	273	2.361998891294	0.000999891294
0	278	2.366973185096	0.001000185096
0	279	2.367706775269	0.000999775269
0	282	2.37939331883	0.00100031883
0	285	2.389682303159	0.001000303159
0	288	2.407130540185	0.000999540185
0	291	2.43740491874	0.00099991874
0	294	2.442910229531	0.001000229531
0	297	2.444627788406	0.000999788406
0	300	2.456887687625	0.000999687625
0	303	2.47972128766	0.00100028766
0	306	2.514746071001	0.001000071001
0	309	2.561837236653	0.001000236653
0	312	2.622458753245	0.000999753245
0	315	2.640125087903	0.001000087903
0	318	2.763103901571	0.000999901571
0	321	2.769614545837	0.000999545837
0	324	2.790748667879	0.000999667879
0	327	2.799998061334	0.001000061334
0	330	2.808584023941	0.001000023941
0	333	2.849659952544	0.000999952544
0	336	2.856447754404	0.000999754404
0	339	2.912690994771	0.000999994771
0	342	2.915356795418	0.000999795418
0	345	2.920088746979	0.000999746979
0	348	2.92207881275	0.00099981275
0	351	2.924703267751	0.001000267751
0	354	2.941893685026	0.000999685026
0	357	2.963021535029	0.000999535029
0	360	2.966977933397	0.000999933397
0	363	2.975497049535	0.001000049535
0	366	2.981110364361	0.001000364361
0	369	3.011007702513	0.000999702513
0	372	3.080671765072	0.000999765072
0	375	3.097506121476	0.001000121476
0	378	3.107183111249	0.001000111249
0	381	3.112327084387	0.001000084387
0	384	3.127407416724	0.001000416724
0	387	3.146959672332	0.000999672332
0	390	3.185983401652	0.001000401652
0	393	3.187700878944	0.000999878944
0	396	3.241205032471	0.001000032471
0	399	3.251470952737	0.000999952737
0	402	3.252520007755	0.001000007755
0	405	3.29161245555	0.00100045555
0	408	3.303227521733	0.000999521733
0	411	3.307002873135	0.000999873135
0	414	3.318273478769	0.001000478769
0	417	3.335754058392	0.001000058392
0	422	3.360885222092	0.001000222092
0	423	3.361437014932	0.001000014932
0	426	3.364461492071	0.001000492071
0	429	3.381318193184	0.001000193184
0	432	3.387558845453	0.000999845453
0	435	3.433142072311	0.001000072311
0	438	3.437031579087	0.000999579087
0	441	3.442611878807	0.000999878807
0	444	3.457290784338	0.000999784338
0	447	3.458374022343	0.001000022343
0	450	3.485034521319	0.000999521319
0	453	3.492480504675	0.000999504675
0	456	3.503088255295	0.001000255295
0	459	3.518398628547	0.000999628547
0	462	3.564164400821	0.001000400821
0	465	3.718376099341	0.001000099341
0	468	3.723743604192	0.000999604192
0	471	3.728842585696	0.000999585696
0	474	3.734992795367	0.000999795367
0	477	3.786927375127	0.001000375127
0	480	3.813256587204	0.000999587204
0	483	3.832918247183	0.001000247183
0	486	3.846316261192	0.001000261192
0	489	3.865443239383	0.001000239383
0	492	3.895543592445	0.000999592445
0	495	3.928574947756	0.000999947756
0	498	3.932542933034	0.000999933034
0	501	3.954931458155	0.001000458155
0	504	3.963197691621	0.000999691621
0	507	3.976341824721	0.000999824721
0	510	3.982904156553	0.001000156553
0	513	3.999003889992	0.000999889992
0	518	4.015657313098	0.001000313098
0	519	4.016294222674	0.001000222674
0	522	4.039998446194	0.001000446194
0	525	4.044029914052	0.000999914052
0	528	4.127516383421	0.001000383421
0	531	4.141527114458	0.001000114458
0	534	4.14307637282	0.00100037282
0	537	4.151414669933	0.000999669933
0	540	4.164016356388	0.001000356388
0	543	4.191414633649	0.000999633649
0	546	4.217972027951	0.001000027951
0	549	4.232818911899	0.000999911899
0	552	4.284953027987	0.001000027987
0	555	4.293635276587	0.001000276587
0	558	4.298075287625	0.001000287625
0	561	4.313831254955	0.001000254955
0	564	4.320988423585	0.001000423585
0	567	4.332662349448	0.001000349448
0	570	4.33716358242	0.00099958242
0	573	4.344025642401	0.000999642401
0	576	4.350268312705	0.001000312705
0	579	4.35931311876	0.00100011876
0	582	4.370019671204	0.000999671204
0	585	4.386550703202	0.000999703202
0	590	4.398123142285	0.001000142285
0	591	4.398620779788	0.000999779788
0	594	4.414322873972	0.000999873972
0	597	4.431252403486	0.001000403486
0	600	4.472400222276	0.001000222276
0	603	4.508399884472	0.000999884472
0	606	4.51701193617	0.00099993617
0	609	4.528043812536	0.000999812536
0	612	4.60491185698	0.00099985698
0	615	4.68143889068	0.00099989068
0	618	4.721650408138	0.001000408138
0	621	4.736678003077	0.001000003077
0	624	4.765414903429	0.000999903429
0	627	4.821280294679	0.001000294679
0	630	4.825535916838	0.000999916838
0	633	4.848149714361	0.000999714361
0	636	4.864477925491	0.000999925491
0	639	4.883851624675	0.000999624675
0	642	4.899547784286	0.000999784286
0	645	4.943025328055	0.001000328055
0	648	4.960327149065	0.001000149065
0	651	4.974751270305	0.001000270305
0	654	4.988428965698	0.000999965698
0	657	5.00549685948	0.00099985948
0	660	5.01891527113	0.00100027113
0	663	5.041508577786	0.000999577786
0	666	5.050756765412	0.000999765412
0	669	5.06689162657	0.00099962657
0	672	5.083925769548	0.000999769548
0	675	5.085575955896	0.000999955896
0	678	5.10101450479	0.00099950479
0	681	5.135712630976	0.000999630976
0	684	5.146380384754	0.001000384754
0	687	5.170715781417	0.000999781417
0	690	5.196481113344	0.001000113344
0	693	5.214174233865	0.001000233865
0	696	5.234912282997	0.001000282997
0	699	5.25305984339	0.00099984339
0	702	5.260718954051	0.000999954051
0	707	5.309039552067	0.000999552067
0	708	5.309889851765	0.000999851765
0	711	5.344229746911	0.000999746911
0	714	5.354856599098	0.000999599098
0	717	5.359577995375	0.000999995375
0	720	5.371168667751	0.000999667751
0	723	5.376660921541	0.000999921541
0	726	5.382201995536	0.000999995536
0	729	5.389076498686	0.001000498686
0	732	5.390178326865	0.001000326865
0	735	5.393296732403	0.000999732403
0	738	5.414071667309	0.000999667309
0	741	5.416023412276	0.001000412276
0	744	5.427418819092	0.000999819092
0	747	5.431882452661	0.001000452661
0	750	5.477767431154	0.001000431154
0	753	5.496161934477	0.000999934477
0	756	5.51198544048	0.00100044048
0	759	5.529678527847	0.000999527847
0	762	5.598938294661	0.001000294661
0	765	5.641753853926	0.000999853926
0	768	5.723013104195	0.001000104195
0	771	5.764865314844	0.001000314844
0	774	5.768712710752	0.000999710752
0	777	5.779295816667	0.000999816667
0	780	5.802228362042	0.001000362042
0	785	5.869605364393	0.001000364393
0	786	5.870120141771	0.001000141771
0	789	5.871752799743	0.000999799743
0	792	5.880899821058	0.000999821058
0	795	5.90690374302	0.00099974302
0	798	5.914311892702	0.000999892702
0	801	5.934407735871	0.000999735871
0	804	5.975238222512	0.001000222512
0	809	5.989724604017	0.000999604017
0	810	5.990650788299	0.000999788299
0	813	6.019489841791	0.000999841791
0	816	6.059683130378	0.001000130378
0	819	6.061120016429	0.001000016429
0	822	6.081756677733	0.000999677733
0	825	6.110579833503	0.000999833503
0	828	6.116216118982	0.001000118982
0	831	6.140733649883	0.000999649883
0	834	6.156999468314	0.001000468314
0	837	6.163165063574	0.001000063574
0	840	6.166133285848	0.001000285848
0	843	6.180170939373	0.000999939373
0	846	6.194806857988	0.000999857988
0	849	6.22657221772	0.00100021772
0	852	6.293483553523	0.000999553523
0	855	6.296212535933	0.000999535933
0	858	6.306924784811	0.000999784811
0	863	6.309121876	0.000999876
0	864	6.310092143829	0.001000143829
0	867	6.371787230273	0.001000230273
0	870	6.37857317121	0.00100017121
0	873	6.384533999416	0.000999999416
0	876	6.406698298848	0.001000298848
0	879	6.417438638653	0.000999638653
0	884	6.420816793734	0.000999793734
0	885	6.421268653426	0.000999653426
0	888	6.422614418551	0.001000418551
0	891	6.426051595411	0.000999595411
0	894	6.458871671952	0.000999671952
0	897	6.477193254999	0.001000254999
0	900	6.506450171557	0.001000171557
0	903	6.531651853233	0.000999853233
0	906	6.545995457121	0.001000457121
0	909	6.574252440197	0.001000440197
0	912	6.592914989332	0.000999989332
0	915	6.603303739963	0.000999739963
0	918	6.702082214341	0.001000214341
0	921	6.704059813147	0.000999813147
0	924	6.724676194251	0.001000194251
0	927	6.787977228337	0.001000228337
0	930	6.842306409334	0.001000409334
0	933	6.858038565678	0.000999565678
0	936	6.863179165939	0.001000165939
0	939	6.881882699788	0.000999699788
0	942	6.903558002063	0.001000002063
0	945	6.915844395406	0.001000395406
0	948	6.920723891885	0.000999891885
0	951	6.933216591806	0.000999591806
0	954	6.939207009853	0.001000009853
0	957	6.94310680034	0.00099980034
0	960	7.02633374154	0.00099974154
0	963	7.03434128093	0.00100028093
0	966	7.051828552478	0.000999552478
0	969	7.058975596283	0.000999596283
0	972	7.065771751267	0.000999751267
0	975	7.069458879739	0.000999879739
0	978	7.087165779644	0.000999779644
0	981	7.128915034023	0.001000034023
0	984	7.130098688253	0.000999688253
0	987	7.140955326309	0.001000326309
0	990	7.154990954532	0.000999954532
0	993	7.214010115083	0.001000115083
0	996	7.251331607973	0.000999607973
0	999	7.258269365993	0.001000365993
0	1002	7.268208147748	0.001000147748
0	1005	7.306113165778	0.001000165778
0	1008	7.328306235862	0.001000235862
0	1011	7.329755954235	0.000999954235
0	1016	7.346453934417	0.000999934417
0	1017	7.346465893112	0.000999893112
0	1020	7.355119988345	0.000999988345
0	1023	7.358512472151	0.001000472151
0	1026	7.360091993374	0.000999993374
0	1029	7.36126795851	0.00099995851
0	1034	7.388613817025	0.000999817025
0	1035	7.38874132002	0.00100032002
0	1038	7.393068990506	0.000999990506
0	1041	7.395749488961	0.001000488961
0	1044	7.404608087263	0.001000087263
0	1047	7.476436789775	0.000999789775
0	1050	7.499140366793	0.001000366793
0	1053	7.535932795492	0.000999795492
0	1056	7.543322775907	0.000999775907
0	1059	7.620910049532	0.001000049532
0	1062	7.68173893953	0.00099993953
0	1065	7.688919998495	0.000999998495
0	1068	7.694345013122	0.001000013122
0	1071	7.723732787859	0.000999787859
0	1076	7.744007276813	0.001000276813
0	1077	7.744942693015	0.000999693015
0	1080	7.790977396978	0.001000396978
0	1083	7.813632013812	0.001000013812
0	1086	7.863184424698	0.001000424698
0	1089	7.880795154788	0.001000154788
0	1092	7.899035258941	0.001000258941
0	1095	7.90617838113	0.00100038113
0	1098	7.931290112458	0.001000112458
0	1101	7.960543507406	0.000999507406
0	1104	7.979786248341	0.001000248341
0	1107	8.029949600691	0.000999600691
0	1110	8.037686288984	0.001000288984
0	1113	8.057134471437	0.001000471437
0	1116	8.06610215574	0.00100015574
0	1121	8.087440875288	0.000999875288
0	1122	8.087646676109	0.000999676109
0	1125	8.103344325417	0.001000325417
0	1128	8.137334629032	0.000999629032
0	1131	8.138628039763	0.001000039763
0	1134	8.165839441747	0.001000441747
0	1137	8.174939439281	0.001000439281
0	1142	8.19365432856	0.00100032856
0	1143	8.19380970837	0.00099970837
0	1146	8.200238116807	0.001000116807
0	1149	8.212696792441	0.000999792441
0	1152	8.222996641393	0.000999641393
0	1155	8.243351766861	0.000999766861
0	1158	8.272056109435	0.001000109435
0	1163	8.306750884348	0.000999884348
0	1164	8.307355321454	0.001000321454
0	1167	8.310128103917	0.001000103917
0	1170	8.315891754183	0.000999754183
0	1173	8.339612616573	0.000999616573
0	1176	8.345541795971	0.000999795971
0	1179	8.356604232522	0.001000232522
0	1182	8.360368640789	0.000999640789
0	1185	8.394376052426	0.001000052426
0	1188	8.418630431942	0.001000431942
0	1191	8.424722755862	0.000999755862
0	1194	8.454139330353	0.001000330353
0	1197	8.463320115557	0.001000115557
0	1200	8.496707907992	0.000999907992
0	1203	8.498291970857	0.000999970857
0	1206	8.619523687636	0.000999687636
0	1209	8.64987843877	0.00100043877
0	1214	8.659653523354	0.000999523354
0	1215	8.660178746678	0.000999746678
0	1218	8.664470365945	0.001000365945
0	1221	8.717876596958	0.000999596958
0	1224	8.727081939974	0.000999939974
0	1227	8.752507032197	0.001000032197
0	1230	8.77701981759	0.00099981759
0	1233	8.861900113592	0.001000113592
0	1236	8.894754524227	0.000999524227
0	1239	8.896917749032	0.000999749032
0	1242	8.911951333167	0.001000333167
0	1245	8.916673709939	0.000999709939
0	1248	8.966706427721	0.001000427721
0	1251	8.967859349142	0.001000349142
0	1254	9.001195260532	0.001000260532
0	1257	9.030820271488	0.001000271488
0	1260	9.060001593246	0.000999593246
0	1265	9.078849600789	0.000999600789
0	1266	9.07906964023	0.00099964023
0	1269	9.080625675547	0.000999675547
0	1272	9.091292515372	0.000999515372
0	1275	9.093283525922	0.000999525922
0	1278	9.109283858746	0.000999858746
0	1281	9.13595996613	0.00099996613
0	1284	9.139498193165	0.001000193165
0	1287	9.155202260636	0.001000260636
0	1290	9.176700221397	0.001000221397
0	1293	9.218618246797	0.001000246797
0	1296	9.220044545106	0.000999545106
0	1301	9.245485438755	0.001000438755
0	1302	9.245552866044	0.000999866044
0	1305	9.272291915979	0.000999915979
0	1308	9.276555197616	0.001000197616
0	1311	9.301213029376	0.001000029376
0	1314	9.303881636844	0.000999636844
0	1317	9.319833992629	0.000999992629
0	1320	9.32274068489	0.00099968489
0	1323	9.324414307832	0.001000307832
0	1326	9.349084459081	0.001000459081
0	1329	9.365408986362	0.000999986362
0	1332	9.376337795447	0.000999795447
0	1335	9.400447304197	0.001000304197
0	1338	9.403720739414	0.000999739414
0	1341	9.431134364032	0.001000364032
0	1344	9.484332121931	0.001000121931
0	1347	9.531206863209	0.000999863209
0	1350	9.532683798971	0.000999798971
0	1353	9.588850302503	0.001000302503
0	1356	9.603280282229	0.001000282229
0	1359	9.610749642107	0.000999642107
0	1362	9.656335246865	0.001000246865
0	1365	9.672970305779	0.001000305779
0	1368	9.687376093327	0.001000093327
0	1371	9.722218250226	0.001000250226
0	1374	9.798678192705	0.001000192705
0	1377	9.807350715878	0.000999715878
0	1380	9.812688442668	0.001000442668
0	1383	9.83958014401	0.00100014401
0	1386	9.853079338487	0.001000338487
0	1389	9.857493003715	0.001000003715
0	1392	9.872991891832	0.000999891832
0	1395	9.920313852208	0.000999852208
0	1398	9.961056742886	0.000999742886
0	1401	9.972314287232	0.001000287232
0	1404	9.990740453941	0.001000453941

