version 3
run Secure50_record-0-20250829-01:43:56-78947
attr configname Secure50_record
attr datetime 20250829-01:43:56
attr datetimef 20250829-014356
attr experiment Secure50_record
attr inifile run_record.ini
attr iterationvars ""
attr iterationvarsd ""
attr iterationvarsf ""
attr measurement ""
attr network ned.LightIoTNetwork
attr processid 78947
attr repetition 0
attr replication #0
attr resultdir results
attr runnumber 0
attr seedset 1
config output-scalar-file results/Secure50_record-rep1.sca
config output-vector-file results/Secure50_record-rep1.vec
config seed-set 1
config network ned.LightIoTNetwork
config output-scalar-file results/Secure50_record-0.sca
config output-vector-file results/Secure50_record-0.vec
config **.scalar-recording true
config **.vector-recording true
config **.result-recording-modes all
config LightIoTNetwork.numSensorNodes 50
config **.fakeNode.enabled false
config **.gateway.securityEnabled true
config **.gateway.hmacWindow 1s
config **.gateway.procDelay 1ms
config **.gateway.costForward_mJ 5
config **.gateway.costVerify_mJ 5
config **.gateway.batteryInit_mJ 5000
config sim-time-limit 10s
config description "Secure Mode Simulation (includes all scenarios)"
config network ned.LightIoTNetwork
config ned-path .
config sim-time-limit 10s
config record-eventlog true
config cmdenv-express-mode false
config network ned.LightIoTNetwork
config sim-time-limit 10s
config output-scalar-file results/secure_output.sca
config output-vector-file results/secure_output.vec
config network LightIoTNetwork
config sim-time-limit 10s
config output-scalar-file results/nosecure_output.sca
config output-vector-file results/nosecure_output.vec
config network LightIoTNetwork
config sim-time-limit 10s
config output-scalar-file results/attack_output.sca
config output-vector-file results/attack_output.vec
config output-scalar-file results/Secure50_record-0.sca
config output-vector-file results/Secure50_record-0.vec
config **.scalar-recording true
config **.vector-recording true
config **.statistic-recording true
config **.result-recording-modes all
config rng-class cMersenneTwister
config num-rngs 1
config seed-set 123

vector 0 LightIoTNetwork.cloud EndToEndDelay_s ETV
0	3	0.50111438108	0.00100038108
0	6	0.528387595968	0.000999595968
0	11	0.593338595539	0.000999595539
0	12	0.593800810235	0.000999810235
0	15	0.629124447772	0.001000447772
0	18	0.641386936953	0.000999936953
0	21	0.647755892551	0.000999892551
0	24	0.687260211281	0.001000211281
0	27	0.699101483285	0.001000483285
0	30	0.705452248989	0.001000248989
0	33	0.730577220045	0.001000220045
0	36	0.737088976264	0.000999976264
0	39	0.80333256775	0.00099956775
0	44	0.814273512991	0.000999512991
0	45	0.814424184686	0.001000184686
0	48	0.84656072508	0.00099972508
0	51	0.888910740217	0.000999740217
0	56	0.897580726141	0.000999726141
0	57	0.897767468657	0.001000468657
0	62	0.918021998437	0.000999998437
0	63	0.918304804316	0.000999804316
0	66	0.920194519054	0.000999519054
0	69	0.931698570097	0.000999570097
0	72	0.944452893756	0.000999893756
0	75	0.95820480918	0.00099980918
0	78	1.019152548233	0.000999548233
0	81	1.025548162706	0.001000162706
0	84	1.035413907211	0.000999907211
0	87	1.039816731889	0.000999731889
0	90	1.059689827332	0.000999827332
0	95	1.170746040367	0.001000040367
0	96	1.17146750756	0.00099950756
0	99	1.18621950068	0.00099950068
0	102	1.193322616931	0.000999616931
0	105	1.21697051085	0.00099951085
0	108	1.221324489288	0.001000489288
0	111	1.279389235493	0.001000235493
0	114	1.301744566368	0.000999566368
0	117	1.303757503232	0.000999503232
0	120	1.347310918219	0.000999918219
0	123	1.366020245314	0.001000245314
0	126	1.377389146084	0.001000146084
0	129	1.379117437009	0.001000437009
0	132	1.414962022401	0.001000022401
0	135	1.4335573612	0.0010003612
0	138	1.436539072612	0.001000072612
0	141	1.440127794933	0.000999794933
0	144	1.469261571834	0.000999571834
0	147	1.498184808133	0.000999808133
0	150	1.500040515395	0.000999515395
0	153	1.510347436949	0.001000436949
0	156	1.536935404617	0.001000404617
0	159	1.580035713849	0.000999713849
0	162	1.581721977074	0.000999977074
0	165	1.594216978106	0.000999978106
0	168	1.595996932428	0.000999932428
0	171	1.599108850698	0.000999850698
0	174	1.650246587325	0.000999587325
0	177	1.659721483173	0.001000483173
0	180	1.739557857229	0.000999857229
0	183	1.755702079622	0.001000079622
0	186	1.774729984136	0.000999984136
0	189	1.78755409189	0.00100009189
0	192	1.828918300871	0.001000300871
0	195	1.837090904847	0.000999904847
0	200	1.848604331327	0.001000331327
0	201	1.848618545638	0.000999545638
0	204	1.875947927194	0.000999927194
0	207	1.881407931097	0.000999931097
0	210	1.895543798081	0.000999798081
0	213	1.90600209108	0.00100009108
0	216	1.929205818729	0.000999818729
0	219	1.936142891202	0.000999891202
0	222	1.942248169215	0.001000169215
0	225	1.968998755025	0.000999755025
0	230	2.001115788262	0.000999788262
0	231	2.001660317251	0.001000317251
0	234	2.025129943876	0.000999943876
0	237	2.084495823992	0.000999823992
0	240	2.089845594367	0.000999594367
0	243	2.153021676628	0.000999676628
0	246	2.173059309297	0.001000309297
0	249	2.203594652493	0.000999652493
0	252	2.210551389422	0.001000389422
0	255	2.224402705649	0.000999705649
0	258	2.235852631297	0.000999631297
0	261	2.246169476047	0.001000476047
0	264	2.261983753064	0.000999753064
0	267	2.268518257862	0.001000257862
0	270	2.334196474192	0.001000474192
0	273	2.337245101923	0.001000101923
0	276	2.355598950222	0.000999950222
0	279	2.371236851042	0.000999851042
0	284	2.392280189855	0.001000189855
0	285	2.393159666587	0.000999666587
0	288	2.397682863543	0.000999863543
0	291	2.414220828631	0.000999828631
0	294	2.424190521961	0.000999521961
0	297	2.453660005679	0.001000005679
0	300	2.460836537903	0.000999537903
0	303	2.505000391998	0.001000391998
0	306	2.517213106876	0.001000106876
0	309	2.536542600322	0.000999600322
0	312	2.55221818222	0.00100018222
0	315	2.6100326095	0.0009996095
0	318	2.615802819956	0.000999819956
0	321	2.658036115229	0.001000115229
0	324	2.665094243944	0.001000243944
0	327	2.666374588501	0.000999588501
0	330	2.678086608391	0.000999608391
0	333	2.756435681996	0.000999681996
0	336	2.766436619288	0.000999619288
0	339	2.787912389844	0.001000389844
0	342	2.802377613238	0.000999613238
0	345	2.826468977168	0.000999977168
0	348	2.828143723471	0.000999723471
0	351	2.841746882371	0.000999882371
0	354	2.851705964538	0.000999964538
0	357	2.866479653095	0.000999653095
0	360	2.918954088421	0.001000088421
0	363	2.921359603409	0.000999603409
0	366	2.935895517304	0.000999517304
0	369	2.939911463087	0.001000463087
0	372	2.984496170491	0.001000170491
0	375	2.994486515758	0.000999515758
0	378	2.999727706959	0.000999706959
0	381	3.007878786627	0.000999786627
0	384	3.032235795933	0.000999795933
0	387	3.033250045566	0.001000045566
0	390	3.082128454302	0.001000454302
0	393	3.138544613471	0.000999613471
0	396	3.142942615807	0.000999615807
0	399	3.160200958349	0.000999958349
0	402	3.167944025084	0.001000025084
0	405	3.227380527159	0.000999527159
0	408	3.23635358226	0.00099958226
0	411	3.285829265624	0.001000265624
0	414	3.294333347142	0.001000347142
0	417	3.298731791576	0.000999791576
0	420	3.321014935267	0.000999935267
0	423	3.33508842776	0.00100042776
0	426	3.363756588543	0.000999588543
0	429	3.381876226444	0.001000226444
0	432	3.399707390996	0.001000390996
0	435	3.410821568522	0.000999568522
0	438	3.417925484501	0.001000484501
0	441	3.43319537246	0.00100037246
0	444	3.438071230775	0.001000230775
0	447	3.468521476839	0.001000476839
0	452	3.475699086742	0.001000086742
0	453	3.476110037252	0.001000037252
0	456	3.524470386908	0.001000386908
0	459	3.547672882512	0.000999882512
0	462	3.579585781343	0.000999781343
0	465	3.603349584549	0.000999584549
0	468	3.622044316049	0.001000316049
0	471	3.630004532378	0.000999532378
0	474	3.692661539674	0.000999539674
0	477	3.708198535744	0.000999535744
0	480	3.711574185988	0.001000185988
0	483	3.798931541828	0.000999541828
0	486	3.804477537214	0.000999537214
0	489	3.811526550095	0.000999550095
0	492	3.812646831082	0.000999831082
0	495	3.820465231848	0.001000231848
0	498	3.8319274924	0.0010004924
0	501	3.83309690028	0.00099990028
0	504	3.87665746461	0.00100046461
0	507	3.890260431798	0.001000431798
0	510	3.902061545824	0.000999545824
0	513	3.904352575983	0.000999575983
0	516	3.925529701145	0.000999701145
0	519	3.986453187348	0.001000187348
0	522	3.996886856504	0.000999856504
0	525	4.000536846485	0.000999846485
0	528	4.031857609817	0.000999609817
0	531	4.040567086287	0.001000086287
0	534	4.057589189544	0.001000189544
0	539	4.060764536284	0.000999536284
0	540	4.061493807448	0.000999807448
0	543	4.080757490474	0.001000490474
0	546	4.087454525589	0.000999525589
0	549	4.20033291059	0.00099991059
0	552	4.207415654906	0.000999654906
0	555	4.217362953791	0.000999953791
0	558	4.250098810321	0.000999810321
0	561	4.2803591524	0.0010001524
0	564	4.282493822951	0.000999822951
0	567	4.296975593292	0.000999593292
0	570	4.301507187098	0.001000187098
0	573	4.333769437413	0.001000437413
0	576	4.378197584603	0.000999584603
0	579	4.382700736704	0.000999736704
0	582	4.406285051232	0.001000051232
0	585	4.416340601979	0.000999601979
0	588	4.425557466152	0.001000466152
0	591	4.441439017676	0.001000017676
0	594	4.454026390076	0.001000390076
0	597	4.462552129733	0.001000129733
0	600	4.48138738044	0.00100038044
0	605	4.491950460127	0.001000460127
0	606	4.492619059444	0.001000059444
0	609	4.540197173294	0.001000173294
0	612	4.553084503695	0.000999503695
0	615	4.601458484469	0.001000484469
0	618	4.663852820521	0.000999820521
0	621	4.680538003587	0.001000003587
0	624	4.686789700691	0.000999700691
0	627	4.714690798263	0.000999798263
0	630	4.764492700085	0.000999700085
0	633	4.76644704102	0.00100004102
0	636	4.789905564835	0.000999564835
0	639	4.797956074285	0.001000074285
0	642	4.816077844774	0.000999844774
0	645	4.823603565221	0.000999565221
0	648	4.838820678112	0.000999678112
0	651	4.871276284126	0.001000284126
0	654	4.886922452341	0.001000452341
0	657	4.898266010289	0.001000010289
0	660	4.906352678708	0.000999678708
0	663	4.913880337331	0.001000337331
0	666	4.920024709426	0.000999709426
0	669	4.970248825032	0.000999825032
0	672	4.973964570997	0.000999570997
0	675	4.98972500211	0.00100000211
0	678	5.007566368276	0.001000368276
0	681	5.045439821923	0.000999821923
0	684	5.05045149105	0.00100049105
0	687	5.079930718824	0.000999718824
0	690	5.087055939458	0.000999939458
0	693	5.089104033097	0.001000033097
0	696	5.131850100843	0.001000100843
0	699	5.14912931656	0.00100031656
0	702	5.159959659469	0.000999659469
0	705	5.221829785756	0.000999785756
0	708	5.235962858492	0.000999858492
0	711	5.237745463823	0.001000463823
0	714	5.251108149229	0.001000149229
0	717	5.286266198032	0.001000198032
0	720	5.287942934152	0.000999934152
0	723	5.301967861944	0.000999861944
0	728	5.322001899801	0.000999899801
0	729	5.322664103772	0.001000103772
0	732	5.327758112898	0.001000112898
0	735	5.357460242253	0.001000242253
0	738	5.374453436559	0.001000436559
0	741	5.39068123165	0.00100023165
0	744	5.42751952179	0.00099952179
0	749	5.43897075213	0.00099975213
0	750	5.43913094697	0.00099994697
0	753	5.499716673348	0.000999673348
0	756	5.534557719831	0.000999719831
0	759	5.550761567962	0.000999567962
0	762	5.605372667008	0.000999667008
0	765	5.619516589049	0.000999589049
0	768	5.633514206227	0.001000206227
0	771	5.646618088822	0.001000088822
0	776	5.669864663132	0.000999663132
0	777	5.670527534394	0.000999534394
0	780	5.682803988153	0.000999988153
0	783	5.77500574214	0.00099974214
0	786	5.783598894602	0.000999894602
0	789	5.799663152428	0.001000152428
0	792	5.803918896405	0.000999896405
0	795	5.812389326212	0.001000326212
0	798	5.835809609176	0.000999609176
0	801	5.860475192008	0.001000192008
0	804	5.864304679048	0.000999679048
0	807	5.891875223419	0.001000223419
0	810	5.949521446669	0.001000446669
0	813	5.958392544906	0.000999544906
0	816	5.963503029825	0.001000029825
0	819	5.967297131218	0.001000131218
0	822	5.99294833301	0.00100033301
0	825	5.996554189058	0.001000189058
0	828	6.031669863289	0.000999863289
0	831	6.072618466498	0.001000466498
0	834	6.076420361991	0.001000361991
0	839	6.100352080561	0.001000080561
0	840	6.100826084915	0.001000084915
0	845	6.117526582744	0.000999582744
0	846	6.11814819246	0.00100019246
0	849	6.129355046734	0.001000046734
0	852	6.132340549375	0.000999549375
0	855	6.133813324734	0.001000324734
0	858	6.16201415404	0.00100015404
0	861	6.166630555292	0.000999555292
0	864	6.195176572981	0.000999572981
0	867	6.2234666866	0.0009996866
0	870	6.267805971506	0.000999971506
0	873	6.281653323699	0.001000323699
0	876	6.338546214415	0.001000214415
0	879	6.341481948527	0.000999948527
0	882	6.351023901462	0.000999901462
0	885	6.36508486953	0.00099986953
0	888	6.371224908786	0.000999908786
0	891	6.378393592335	0.000999592335
0	894	6.400058039114	0.001000039114
0	897	6.402624627505	0.000999627505
0	900	6.414111529965	0.000999529965
0	903	6.458384276109	0.001000276109
0	906	6.493429614207	0.000999614207
0	909	6.577535617978	0.000999617978
0	912	6.584658462717	0.001000462717
0	915	6.587276737041	0.000999737041
0	918	6.588443236867	0.001000236867
0	921	6.613231419608	0.001000419608
0	924	6.620992683733	0.000999683733
0	927	6.633136681583	0.000999681583
0	930	6.64421683389	0.00099983389
0	933	6.715922600519	0.000999600519
0	936	6.738749048462	0.001000048462
0	939	6.774308295942	0.001000295942
0	942	6.810036388248	0.001000388248
0	945	6.823770913599	0.000999913599
0	948	6.828661112138	0.001000112138
0	951	6.891661235992	0.001000235992
0	954	6.906362097594	0.001000097594
0	957	6.923239078395	0.001000078395
0	960	6.933819957845	0.000999957845
0	963	6.954479189891	0.001000189891
0	966	6.961240983311	0.000999983311
0	969	6.96605107386	0.00100007386
0	972	6.997712558111	0.000999558111
0	977	7.020545331458	0.001000331458
0	978	7.021241822442	0.000999822442
0	981	7.031710359476	0.001000359476
0	984	7.040277249762	0.001000249762
0	987	7.043359475698	0.001000475698
0	990	7.128021190291	0.001000190291
0	993	7.131082346035	0.001000346035
0	996	7.138414645962	0.000999645962
0	999	7.148372305533	0.001000305533
0	1002	7.152695844763	0.000999844763
0	1005	7.155024604336	0.000999604336
0	1008	7.187896447185	0.001000447185
0	1011	7.224789426404	0.001000426404
0	1014	7.23723697413	0.00099997413
0	1017	7.245125804771	0.000999804771
0	1020	7.24769120051	0.00100020051
0	1023	7.258862465502	0.001000465502
0	1026	7.272891114208	0.001000114208
0	1029	7.30043145751	0.00100045751
0	1032	7.344911503675	0.000999503675
0	1035	7.354421827499	0.000999827499
0	1038	7.357241585035	0.000999585035
0	1041	7.381033914279	0.000999914279
0	1044	7.401815786841	0.000999786841
0	1047	7.412814271194	0.001000271194
0	1050	7.439205179712	0.001000179712
0	1053	7.507451162229	0.001000162229
0	1056	7.514896691799	0.000999691799
0	1059	7.526498386147	0.001000386147
0	1062	7.540260648702	0.000999648702
0	1067	7.57671835476	0.00100035476
0	1068	7.577088965685	0.000999965685
0	1071	7.586763572854	0.000999572854
0	1074	7.607153521873	0.000999521873
0	1077	7.611382196632	0.001000196632
0	1080	7.653600735286	0.000999735286
0	1083	7.673841006236	0.001000006236
0	1086	7.716343098388	0.001000098388
0	1089	7.729120237123	0.001000237123
0	1092	7.741866102232	0.001000102232
0	1095	7.761102214386	0.001000214386
0	1098	7.804968532477	0.000999532477
0	1101	7.852881520171	0.000999520171
0	1106	7.874322025269	0.001000025269
0	1107	7.875302098807	0.001000098807
0	1110	7.877654833975	0.000999833975
0	1113	7.889893584674	0.000999584674
0	1116	7.904737930022	0.000999930022
0	1119	8.015430102985	0.001000102985
0	1124	8.036558666009	0.000999666009
0	1125	8.036644420795	0.001000420795
0	1128	8.048437507799	0.000999507799
0	1131	8.061564523283	0.000999523283
0	1136	8.083741700953	0.000999700953
0	1137	8.083915143808	0.001000143808
0	1140	8.103318146033	0.001000146033
0	1143	8.108206292032	0.001000292032
0	1146	8.128321069268	0.001000069268
0	1149	8.152679613208	0.000999613208
0	1152	8.180772423068	0.001000423068
0	1155	8.192443772148	0.000999772148
0	1158	8.198298172814	0.001000172814
0	1161	8.202037797472	0.000999797472
0	1164	8.203221771609	0.000999771609
0	1167	8.279225032286	0.001000032286
0	1170	8.284599266595	0.001000266595
0	1173	8.301294244755	0.001000244755
0	1176	8.310302773978	0.000999773978
0	1179	8.326688976469	0.000999976469
0	1182	8.330273672449	0.000999672449
0	1185	8.345256878969	0.000999878969
0	1188	8.402953064371	0.001000064371
0	1191	8.404389585204	0.000999585204
0	1194	8.418727435101	0.001000435101
0	1197	8.453082864894	0.000999864894
0	1200	8.478689507837	0.000999507837
0	1203	8.480962712246	0.000999712246
0	1206	8.502617535438	0.000999535438
0	1209	8.537829024088	0.001000024088
0	1212	8.589383740232	0.000999740232
0	1215	8.597486386004	0.001000386004
0	1218	8.599936713394	0.000999713394
0	1221	8.612503044609	0.001000044609
0	1224	8.615076814194	0.000999814194
0	1227	8.646686427271	0.001000427271
0	1230	8.649733416897	0.001000416897
0	1233	8.659839625865	0.000999625865
0	1236	8.671039140245	0.001000140245
0	1239	8.692423664102	0.000999664102
0	1242	8.749982335021	0.001000335021
0	1245	8.771011798247	0.000999798247
0	1248	8.795368853793	0.000999853793
0	1251	8.85133020475	0.00100020475
0	1254	8.868868707469	0.000999707469
0	1257	8.926579327671	0.001000327671
0	1260	8.935989774089	0.000999774089
0	1263	8.938117805565	0.000999805565
0	1266	8.943528210859	0.001000210859
0	1269	8.959048785944	0.000999785944
0	1272	8.971435553929	0.000999553929
0	1275	8.98683042738	0.00100042738
0	1278	8.999445694849	0.000999694849
0	1281	9.010930974897	0.000999974897
0	1284	9.019352954555	0.000999954555
0	1287	9.030863602528	0.000999602528
0	1290	9.056984574835	0.000999574835
0	1293	9.108082609832	0.000999609832
0	1296	9.109338725987	0.000999725987
0	1299	9.141955185657	0.001000185657
0	1302	9.170058815716	0.000999815716
0	1305	9.172681479225	0.001000479225
0	1308	9.182228828243	0.000999828243
0	1311	9.231381024023	0.001000024023
0	1314	9.236533496831	0.001000496831
0	1317	9.267460891301	0.000999891301
0	1320	9.271456247776	0.001000247776
0	1323	9.279015951718	0.000999951718
0	1326	9.282037814309	0.000999814309
0	1329	9.290561624265	0.000999624265
0	1332	9.293101691012	0.000999691012
0	1335	9.330888854409	0.000999854409
0	1338	9.422030195849	0.001000195849
0	1341	9.425602902448	0.000999902448
0	1344	9.434984860965	0.000999860965
0	1347	9.466287723345	0.000999723345
0	1350	9.47353447273	0.00100047273
0	1353	9.480091036553	0.001000036553
0	1356	9.519853632779	0.000999632779
0	1359	9.548234540666	0.000999540666
0	1362	9.554231859953	0.000999859953
0	1365	9.568984209581	0.001000209581
0	1368	9.651815678527	0.000999678527
0	1371	9.657032719554	0.000999719554
0	1374	9.668639789962	0.000999789962
0	1377	9.673252783924	0.000999783924
0	1380	9.681449933652	0.000999933652
0	1383	9.701693027349	0.001000027349
0	1386	9.71924003728	0.00100003728
0	1389	9.727764889667	0.000999889667
0	1392	9.742878777881	0.000999777881
0	1395	9.79417393913	0.00099993913
0	1398	9.808473975607	0.000999975607
0	1401	9.810782380378	0.001000380378
0	1404	9.830732515897	0.000999515897
0	1407	9.862155440705	0.001000440705
0	1410	9.906250376928	0.001000376928
0	1413	9.92463003213	0.00100003213
0	1416	9.943124341849	0.001000341849
0	1419	9.957939867232	0.000999867232
0	1422	9.969092994531	0.000999994531
0	1425	9.997666245628	0.001000245628

