version 3
run Secure20_record-0-20250829-01:43:55-78778
attr configname Secure20_record
attr datetime 20250829-01:43:55
attr datetimef 20250829-014355
attr experiment Secure20_record
attr inifile run_record.ini
attr iterationvars ""
attr iterationvarsd ""
attr iterationvarsf ""
attr measurement ""
attr network ned.LightIoTNetwork
attr processid 78778
attr repetition 0
attr replication #0
attr resultdir results
attr runnumber 0
attr seedset 2
config output-scalar-file results/Secure20_record-rep2.sca
config output-vector-file results/Secure20_record-rep2.vec
config seed-set 2
config network ned.LightIoTNetwork
config output-scalar-file results/Secure20_record-0.sca
config output-vector-file results/Secure20_record-0.vec
config **.scalar-recording true
config **.vector-recording true
config **.result-recording-modes all
config LightIoTNetwork.numSensorNodes 20
config **.fakeNode.enabled false
config **.gateway.securityEnabled true
config **.gateway.hmacWindow 1s
config **.gateway.procDelay 1ms
config **.gateway.costForward_mJ 5
config **.gateway.costVerify_mJ 5
config **.gateway.batteryInit_mJ 5000
config sim-time-limit 10s
config description "Secure Mode Simulation (includes all scenarios)"
config network ned.LightIoTNetwork
config ned-path .
config sim-time-limit 10s
config record-eventlog true
config cmdenv-express-mode false
config network ned.LightIoTNetwork
config sim-time-limit 10s
config output-scalar-file results/secure_output.sca
config output-vector-file results/secure_output.vec
config network LightIoTNetwork
config sim-time-limit 10s
config output-scalar-file results/nosecure_output.sca
config output-vector-file results/nosecure_output.vec
config network LightIoTNetwork
config sim-time-limit 10s
config output-scalar-file results/attack_output.sca
config output-vector-file results/attack_output.vec
config output-scalar-file results/Secure20_record-0.sca
config output-vector-file results/Secure20_record-0.vec
config **.scalar-recording true
config **.vector-recording true
config **.statistic-recording true
config **.result-recording-modes all
config rng-class cMersenneTwister
config num-rngs 1
config seed-set 123

vector 0 LightIoTNetwork.cloud EndToEndDelay_s ETV
0	3	0.526926227914	0.001000227914
0	6	0.620950543856	0.000999543856
0	9	0.655426675523	0.000999675523
0	12	0.686082081473	0.001000081473
0	15	0.705648636049	0.000999636049
0	18	0.767827276442	0.001000276442
0	21	0.800654677277	0.000999677277
0	24	0.82153643628	0.00100043628
0	27	0.831334820319	0.000999820319
0	30	0.921367801562	0.000999801562
0	35	0.936322393198	0.001000393198
0	36	0.936994902626	0.000999902626
0	41	0.985749096213	0.001000096213
0	42	0.98617591483	0.00099991483
0	45	1.05066247594	0.00100047594
0	48	1.120270970346	0.000999970346
0	51	1.13373773063	0.00099973063
0	54	1.199862689314	0.000999689314
0	57	1.432540863588	0.000999863588
0	60	1.448730610846	0.000999610846
0	63	1.551152994552	0.000999994552
0	66	1.632564624515	0.000999624515
0	69	1.661255093593	0.001000093593
0	72	1.68459588827	0.00099988827
0	75	1.72268728048	0.00100028048
0	80	1.767539509967	0.000999509967
0	81	1.768222792888	0.000999792888
0	84	1.803370300842	0.001000300842
0	87	1.838895832071	0.000999832071
0	90	1.88869451892	0.00099951892
0	93	1.965318647748	0.000999647748
0	96	1.993389422702	0.001000422702
0	99	1.995417378121	0.001000378121
0	102	2.04950984402	0.00099984402
0	105	2.056544154393	0.001000154393
0	108	2.101732536846	0.000999536846
0	111	2.135259614069	0.000999614069
0	114	2.203050028881	0.001000028881
0	117	2.348469957778	0.000999957778
0	120	2.542657092376	0.001000092376
0	123	2.55220221232	0.00100021232
0	126	2.574312394321	0.001000394321
0	129	2.591968296491	0.001000296491
0	132	2.64216965225	0.00099965225
0	135	2.687528977193	0.000999977193
0	138	2.690778174507	0.001000174507
0	141	2.708311746711	0.000999746711
0	144	2.739715708302	0.000999708302
0	147	2.76432782642	0.00099982642
0	150	2.887552472506	0.001000472506
0	153	2.940619778749	0.000999778749
0	156	2.977933291322	0.001000291322
0	159	2.984667709353	0.000999709353
0	162	2.993876877449	0.000999877449
0	165	3.006542448769	0.001000448769
0	168	3.079320855321	0.000999855321
0	171	3.155230772144	0.000999772144
0	174	3.21851164291	0.00099964291
0	177	3.318435214855	0.001000214855
0	180	3.476221755263	0.000999755263
0	183	3.532316941884	0.000999941884
0	186	3.545759709341	0.000999709341
0	189	3.547806668118	0.000999668118
0	192	3.635904368734	0.001000368734
0	195	3.704925713059	0.000999713059
0	198	3.715610322472	0.001000322472
0	201	3.721631410927	0.001000410927
0	204	3.765375169808	0.001000169808
0	207	3.798333656903	0.000999656903
0	210	3.917998308851	0.001000308851
0	213	3.920164831611	0.000999831611
0	216	4.000539230066	0.001000230066
0	219	4.003217815164	0.000999815164
0	222	4.022543285344	0.001000285344
0	225	4.043395199882	0.001000199882
0	228	4.087690492787	0.001000492787
0	231	4.092047276835	0.001000276835
0	234	4.148224598983	0.000999598983
0	237	4.358585683558	0.000999683558
0	242	4.546677961875	0.000999961875
0	245	4.547664885291	0.000999885291
0	246	4.547808340913	0.001000340913
0	249	4.579358352697	0.001000352697
0	252	4.625227158353	0.001000158353
0	255	4.689954142202	0.001000142202
0	258	4.728434666036	0.000999666036
0	261	4.78282972488	0.00099972488
0	264	4.811762482416	0.001000482416
0	267	4.814263580855	0.000999580855
0	270	4.869744943059	0.000999943059
0	273	4.905674024461	0.001000024461
0	276	4.990567267615	0.001000267615
0	279	4.993278360017	0.001000360017
0	282	5.062374287075	0.001000287075
0	285	5.081258991102	0.000999991102
0	290	5.098707037488	0.001000037488
0	291	5.09916811215	0.00100011215
0	294	5.103059249673	0.001000249673
0	297	5.449334128037	0.001000128037
0	300	5.495777336857	0.001000336857
0	303	5.556506516387	0.000999516387
0	306	5.606318039656	0.001000039656
0	309	5.610636024293	0.001000024293
0	312	5.663222621357	0.000999621357
0	315	5.714845243026	0.001000243026
0	318	5.79301159305	0.00099959305
0	321	5.795518590486	0.000999590486
0	324	5.811114497692	0.001000497692
0	329	5.813944573956	0.000999573956
0	330	5.814790306775	0.001000306775
0	333	5.852999825286	0.000999825286
0	336	5.942713807406	0.000999807406
0	339	5.994687864764	0.000999864764
0	342	6.039893550215	0.000999550215
0	345	6.048681841069	0.000999841069
0	348	6.176367786782	0.000999786782
0	351	6.191297910245	0.000999910245
0	354	6.197938514242	0.000999514242
0	357	6.496379786846	0.000999786846
0	360	6.543450190987	0.001000190987
0	363	6.616558186499	0.001000186499
0	366	6.630999447987	0.001000447987
0	369	6.646726447041	0.001000447041
0	372	6.704531021764	0.001000021764
0	375	6.729363679629	0.000999679629
0	378	6.76783721561	0.00100021561
0	381	6.77254922043	0.00100022043
0	384	6.789215944078	0.000999944078
0	387	6.799994812183	0.000999812183
0	390	6.857813200936	0.001000200936
0	393	6.90317724368	0.00100024368
0	396	6.907288650818	0.000999650818
0	399	6.957817634079	0.000999634079
0	402	6.966012720831	0.000999720831
0	405	7.09227954999	0.00099954999
0	408	7.240181962421	0.000999962421
0	411	7.262893498944	0.001000498944
0	414	7.287928598629	0.000999598629
0	417	7.484650770412	0.000999770412
0	420	7.546936343213	0.001000343213
0	423	7.611434710421	0.000999710421
0	426	7.617358274314	0.001000274314
0	429	7.681312629929	0.000999629929
0	432	7.707893767836	0.000999767836
0	435	7.715257790939	0.000999790939
0	438	7.749927197233	0.001000197233
0	441	7.768002602341	0.000999602341
0	444	7.78256571528	0.00099971528
0	447	7.808397535024	0.000999535024
0	450	7.866398192173	0.001000192173
0	453	7.933659747406	0.000999747406
0	456	7.943122550635	0.000999550635
0	459	7.95052665586	0.00099965586
0	462	7.99488301759	0.00100001759
0	465	8.011712421311	0.001000421311
0	468	8.211332687197	0.000999687197
0	471	8.230515247047	0.001000247047
0	474	8.322374487644	0.001000487644
0	477	8.438528530649	0.000999530649
0	480	8.519341824552	0.000999824552
0	483	8.586422818968	0.000999818968
0	486	8.627971688215	0.000999688215
0	489	8.6805589461	0.0009999461
0	492	8.693018332052	0.001000332052
0	495	8.745507287816	0.001000287816
0	498	8.747698195347	0.001000195347
0	501	8.75056858065	0.00099958065
0	504	8.80781229406	0.00100029406
0	507	8.836063367012	0.001000367012
0	510	8.916640914069	0.000999914069
0	513	8.920701036298	0.001000036298
0	516	8.949293306539	0.001000306539
0	519	8.977232305728	0.001000305728
0	522	9.008396151778	0.001000151778
0	525	9.021908002274	0.001000002274
0	528	9.237501218423	0.001000218423
0	531	9.290756808709	0.000999808709
0	534	9.325097385211	0.001000385211
0	537	9.36108377378	0.00099977378
0	540	9.495680412253	0.001000412253
0	543	9.549074523546	0.000999523546
0	546	9.588918487471	0.001000487471
0	549	9.720463603339	0.000999603339
0	552	9.722421177219	0.001000177219
0	555	9.778990516602	0.000999516602
0	558	9.782071057404	0.001000057404
0	561	9.793187238765	0.001000238765
0	564	9.839267329707	0.001000329707
0	567	9.86251810689	0.00100010689
0	570	9.868502719909	0.000999719909
0	573	9.904051723679	0.000999723679

