version 3
run Attack50_record-0-20250829-01:43:59-80403
attr configname Attack50_record
attr datetime 20250829-01:43:59
attr datetimef 20250829-014359
attr experiment Attack50_record
attr inifile run_record.ini
attr iterationvars ""
attr iterationvarsd ""
attr iterationvarsf ""
attr measurement ""
attr network ned.LightIoTNetwork
attr processid 80403
attr repetition 0
attr replication #0
attr resultdir results
attr runnumber 0
attr seedset 0
config output-scalar-file results/Attack50_record-rep0.sca
config output-vector-file results/Attack50_record-rep0.vec
config seed-set 0
config network ned.LightIoTNetwork
config output-scalar-file results/Attack50_record-0.sca
config output-vector-file results/Attack50_record-0.vec
config **.scalar-recording true
config **.vector-recording true
config **.result-recording-modes all
config LightIoTNetwork.numSensorNodes 50
config **.gateway.securityEnabled true
config **.gateway.hmacWindow 3s
config **.gateway.procDelay 1ms
config **.gateway.costForward_mJ 5
config **.gateway.costVerify_mJ 5
config **.gateway.batteryInit_mJ 5000
config **.fakeNode.enabled true
config **.fakeNode.attackMode 1
config **.fakeNode.replayInterval 2.5s
config sim-time-limit 10s
config rng-class cMersenneTwister
config num-rngs 1
config seed-set 123
config description "Secure Mode Simulation (includes all scenarios)"
config network ned.LightIoTNetwork
config ned-path .
config sim-time-limit 10s
config record-eventlog true
config cmdenv-express-mode false
config network ned.LightIoTNetwork
config sim-time-limit 10s
config output-scalar-file results/secure_output.sca
config output-vector-file results/secure_output.vec
config network LightIoTNetwork
config sim-time-limit 10s
config output-scalar-file results/nosecure_output.sca
config output-vector-file results/nosecure_output.vec
config network LightIoTNetwork
config sim-time-limit 10s
config output-scalar-file results/attack_output.sca
config output-vector-file results/attack_output.vec
config output-scalar-file results/Attack50_record-0.sca
config output-vector-file results/Attack50_record-0.vec
config **.scalar-recording true
config **.vector-recording true
config **.statistic-recording true
config **.result-recording-modes all
config rng-class cMersenneTwister
config num-rngs 1
config seed-set 123

vector 0 LightIoTNetwork.cloud EndToEndDelay_s ETV
0	3	0.52121839912	0.00100039912
0	6	0.557712975726	0.000999975726
0	9	0.572036058711	0.001000058711
0	12	0.588129296968	0.001000296968
0	15	0.619274423759	0.001000423759
0	18	0.641350777423	0.000999777423
0	21	0.773656294517	0.001000294517
0	24	0.798534605255	0.000999605255
0	27	0.838396161631	0.001000161631
0	30	0.869241537362	0.000999537362
0	35	0.88444152132	0.00099952132
0	36	0.885381708223	0.000999708223
0	39	0.893784793163	0.000999793163
0	42	0.924654796788	0.000999796788
0	45	0.938587209977	0.001000209977
0	48	0.962479362799	0.001000362799
0	51	0.974608040018	0.001000040018
0	54	0.978665111655	0.001000111655
0	57	0.980977171402	0.001000171402
0	60	1.021477480488	0.001000480488
0	63	1.029894921532	0.000999921532
0	66	1.045883177383	0.001000177383
0	69	1.049813502304	0.000999502304
0	72	1.069044563755	0.000999563755
0	75	1.093844616389	0.000999616389
0	78	1.103763370378	0.001000370378
0	81	1.124563696397	0.000999696397
0	84	1.146894115092	0.001000115092
0	87	1.149171876557	0.000999876557
0	90	1.179879533662	0.000999533662
0	93	1.216189364972	0.001000364972
0	96	1.221632651588	0.000999651588
0	99	1.279156756889	0.000999756889
0	102	1.281529175652	0.001000175652
0	105	1.292725033429	0.001000033429
0	108	1.300158563837	0.000999563837
0	111	1.301910752499	0.000999752499
0	114	1.313168726465	0.000999726465
0	117	1.33361984284	0.00099984284
0	120	1.337078768829	0.000999768829
0	123	1.34526574409	0.00099974409
0	126	1.348251737257	0.000999737257
0	129	1.358945619849	0.000999619849
0	134	1.371012145257	0.001000145257
0	135	1.371087251067	0.001000251067
0	138	1.392773001757	0.001000001757
0	141	1.426596633228	0.000999633228
0	144	1.458155154319	0.001000154319
0	147	1.464662764058	0.000999764058
0	150	1.479618342895	0.001000342895
0	153	1.486383632826	0.000999632826
0	156	1.537622357368	0.001000357368
0	159	1.579510704357	0.000999704357
0	162	1.645720443059	0.001000443059
0	165	1.670997547846	0.000999547846
0	168	1.677063080691	0.001000080691
0	171	1.694837815802	0.000999815802
0	174	1.781466993479	0.000999993479
0	179	1.821707990229	0.000999990229
0	180	1.822152659645	0.000999659645
0	183	1.833116246177	0.001000246177
0	188	1.881897281319	0.001000281319
0	189	1.882423071259	0.001000071259
0	192	1.901651674671	0.000999674671
0	195	1.91588486398	0.00099986398
0	200	1.940228445524	0.001000445524
0	201	1.941168428747	0.001000428747
0	204	1.945805372227	0.001000372227
0	207	1.959829894289	0.000999894289
0	210	1.976166152464	0.001000152464
0	213	1.994277779408	0.000999779408
0	216	2.045004580658	0.000999580658
0	219	2.068302321876	0.001000321876
0	222	2.071142412	0.001000412
0	225	2.092431363485	0.001000363485
0	228	2.139161874469	0.000999874469
0	231	2.151781114074	0.001000114074
0	234	2.183258174661	0.001000174661
0	237	2.192512985434	0.000999985434
0	240	2.205083390673	0.001000390673
0	243	2.209039042121	0.001000042121
0	248	2.212203657137	0.000999657137
0	249	2.212581103737	0.001000103737
0	252	2.238802057341	0.001000057341
0	255	2.279447661316	0.000999661316
0	258	2.29032824959	0.00100024959
0	261	2.296797404927	0.001000404927
0	264	2.321055414736	0.001000414736
0	267	2.330576053889	0.001000053889
0	270	2.346522068721	0.001000068721
0	273	2.355858671688	0.000999671688
0	276	2.359626472531	0.001000472531
0	279	2.36424784928	0.00099984928
0	282	2.371206343569	0.001000343569
0	285	2.394068717933	0.000999717933
0	288	2.395872566219	0.000999566219
0	291	2.421224478841	0.001000478841
0	294	2.429672209569	0.001000209569
0	297	2.430897309001	0.001000309001
0	300	2.448162766569	0.000999766569
0	303	2.493657698085	0.000999698085
0	306	2.525342660047	0.000999660047
0	309	2.597472042054	0.001000042054
0	312	2.606365514988	0.000999514988
0	317	2.723242345195	0.001000345195
0	320	2.72539587959	0.00099987959
0	323	2.743395209428	0.001000209428
0	326	2.754414561879	0.000999561879
0	329	2.762787401698	0.001000401698
0	332	2.848719765641	0.000999765641
0	335	2.852309994934	0.000999994934
0	338	2.894690489838	0.001000489838
0	343	2.898758581582	0.000999581582
0	344	2.898793137701	0.001000137701
0	347	2.90796006976	0.00100006976
0	350	2.912518945731	0.000999945731
0	353	2.932176159298	0.001000159298
0	356	2.933490600086	0.000999600086
0	359	2.936107929772	0.000999929772
0	362	2.96187930291	0.00100030291
0	365	2.967079608491	0.000999608491
0	368	2.984531915489	0.000999915489
0	371	3.055871712438	0.000999712438
0	374	3.066798464371	0.001000464371
0	379	3.102408330398	0.001000330398
0	380	3.103252786328	0.000999786328
0	383	3.115295432112	0.001000432112
0	386	3.122574646001	0.000999646001
0	389	3.158222311571	0.001000311571
0	392	3.178828423818	0.001000423818
0	395	3.207450210419	0.001000210419
0	398	3.24027509496	0.00100009496
0	401	3.241544415731	0.001000415731
0	404	3.276402303319	0.001000303319
0	407	3.282427195714	0.001000195714
0	410	3.304016879968	0.000999879968
0	413	3.305211656517	0.000999656517
0	416	3.331529331137	0.001000331137
0	419	3.334894843468	0.000999843468
0	422	3.353356712194	0.000999712194
0	425	3.356000324362	0.001000324362
0	428	3.357917230924	0.001000230924
0	431	3.366172723634	0.000999723634
0	434	3.411456321621	0.001000321621
0	437	3.416841669822	0.000999669822
0	440	3.424965053679	0.001000053679
0	443	3.431497365399	0.001000365399
0	446	3.441813961765	0.000999961765
0	449	3.466558561729	0.000999561729
0	452	3.477524925838	0.000999925838
0	457	3.481904051941	0.001000051941
0	458	3.481999882379	0.000999882379
0	461	3.530404827906	0.000999827906
0	464	3.678160104737	0.001000104737
0	467	3.684623919449	0.000999919449
0	470	3.69338938815	0.00100038815
0	473	3.695131238991	0.001000238991
0	476	3.739573916676	0.000999916676
0	479	3.800519638949	0.000999638949
0	484	3.811622637905	0.000999637905
0	485	3.812316400301	0.001000400301
0	488	3.851324496393	0.001000496393
0	491	3.877543087512	0.001000087512
0	494	3.914957201131	0.001000201131
0	497	3.928405173564	0.001000173564
0	500	3.945213932427	0.000999932427
0	503	3.946810889778	0.000999889778
0	506	3.951013369601	0.001000369601
0	509	3.968873400683	0.001000400683
0	512	3.982405676156	0.000999676156
0	515	3.985586565569	0.000999565569
0	518	3.989181526074	0.000999526074
0	521	4.009128442569	0.001000442569
0	524	4.03191792944	0.00099992944
0	527	4.109321550768	0.000999550768
0	530	4.113766024377	0.001000024377
0	533	4.118442085362	0.001000085362
0	536	4.139216303754	0.001000303754
0	539	4.142542214807	0.001000214807
0	542	4.186639852798	0.000999852798
0	545	4.20276187572	0.00099987572
0	548	4.208433885568	0.000999885568
0	551	4.27375717021	0.00100017021
0	554	4.287840876331	0.000999876331
0	559	4.289410549332	0.000999549332
0	560	4.289994984887	0.000999984887
0	563	4.310012831561	0.000999831561
0	566	4.311862023429	0.001000023429
0	569	4.31547783173	0.00099983173
0	572	4.335564474692	0.001000474692
0	575	4.342753058182	0.001000058182
0	578	4.347282319538	0.001000319538
0	581	4.349829761939	0.000999761939
0	584	4.37348888095	0.00099988095
0	587	4.375219817528	0.000999817528
0	590	4.376737020466	0.001000020466
0	593	4.395846914382	0.000999914382
0	596	4.405458984547	0.000999984547
0	599	4.436001476108	0.001000476108
0	602	4.490753059344	0.001000059344
0	605	4.495827732816	0.000999732816
0	608	4.513088233699	0.001000233699
0	611	4.571152284065	0.001000284065
0	614	4.642319205937	0.001000205937
0	617	4.681788851762	0.000999851762
0	620	4.689324544626	0.000999544626
0	623	4.725198908825	0.000999908825
0	626	4.785827097133	0.001000097133
0	629	4.791536055947	0.001000055947
0	632	4.826854105083	0.001000105083
0	635	4.851740977236	0.000999977236
0	638	4.869732881685	0.000999881685
0	641	4.889830258558	0.001000258558
0	644	4.92940758143	0.00099958143
0	649	4.956189389595	0.001000389595
0	650	4.956750765372	0.000999765372
0	653	4.971830751862	0.000999751862
0	656	4.975426111951	0.001000111951
0	659	5.00488451526	0.00099951526
0	662	5.025121775943	0.000999775943
0	665	5.032561932759	0.000999932759
0	668	5.04156317145	0.00100017145
0	671	5.058463259296	0.001000259296
0	674	5.071813784936	0.000999784936
0	677	5.073253414709	0.001000414709
0	680	5.104842627351	0.000999627351
0	683	5.124906243173	0.001000243173
0	688	5.165941000566	0.001000000566
0	691	5.171846825886	0.000999825886
0	694	5.201975867686	0.000999867686
0	697	5.22371642522	0.00100042522
0	700	5.237849691159	0.000999691159
0	703	5.252054215758	0.001000215758
0	706	5.284654525736	0.000999525736
0	709	5.304095451509	0.001000451509
0	712	5.321326422154	0.001000422154
0	715	5.333170848408	0.000999848408
0	718	5.347547196153	0.001000196153
0	721	5.350368341732	0.001000341732
0	724	5.356471012276	0.001000012276
0	727	5.366342056797	0.001000056797
0	732	5.374686741013	0.000999741013
0	733	5.374820772813	0.000999772813
0	736	5.380615330977	0.001000330977
0	739	5.390229993337	0.000999993337
0	742	5.403096075285	0.001000075285
0	745	5.40553505977	0.00100005977
0	748	5.416926873824	0.000999873824
0	751	5.459763188309	0.001000188309
0	754	5.464705608902	0.000999608902
0	757	5.490801237126	0.001000237126
0	760	5.512031702719	0.000999702719
0	763	5.565178721746	0.000999721746
0	766	5.602634169183	0.001000169183
0	769	5.682797109591	0.001000109591
0	772	5.721359252301	0.001000252301
0	775	5.725003758468	0.000999758468
0	778	5.743842619121	0.000999619121
0	781	5.768228501151	0.000999501151
0	784	5.850457190465	0.001000190465
0	787	5.855486621403	0.000999621403
0	790	5.856502395146	0.001000395146
0	793	5.876762061588	0.001000061588
0	796	5.890305529184	0.000999529184
0	799	5.901574944447	0.000999944447
0	802	5.916407230938	0.001000230938
0	807	5.965188278047	0.001000278047
0	808	5.965520696784	0.000999696784
0	811	5.975693848147	0.000999848147
0	814	5.989419094262	0.001000094262
0	819	6.042925183776	0.001000183776
0	820	6.043296328535	0.001000328535
0	823	6.056428222613	0.001000222613
0	826	6.089105691922	0.000999691922
0	829	6.102453948022	0.000999948022
0	832	6.116099362425	0.001000362425
0	835	6.135263282223	0.001000282223
0	840	6.151969205797	0.001000205797
0	841	6.152224687463	0.000999687463
0	844	6.167045767907	0.000999767907
0	847	6.17150620108	0.00100020108
0	850	6.211362065489	0.001000065489
0	853	6.271827509602	0.000999509602
0	856	6.281285187344	0.001000187344
0	859	6.285239034121	0.001000034121
0	864	6.294732118327	0.001000118327
0	865	6.294734589777	0.000999589777
0	868	6.355927291534	0.001000291534
0	871	6.357772845191	0.000999845191
0	874	6.360692325444	0.001000325444
0	877	6.394595269836	0.001000269836
0	880	6.397248729388	0.000999729388
0	885	6.399384894104	0.000999894104
0	886	6.399711093794	0.001000093794
0	889	6.400903898592	0.000999898592
0	892	6.408785994512	0.000999994512
0	895	6.445944334961	0.001000334961
0	898	6.464511853573	0.000999853573
0	901	6.472690598642	0.000999598642
0	904	6.516696274396	0.001000274396
0	907	6.527991214276	0.001000214276
0	910	6.535132755454	0.000999755454
0	913	6.571730785978	0.000999785978
0	916	6.585656914835	0.000999914835
0	919	6.658373262057	0.001000262057
0	922	6.668606615601	0.000999615601
0	925	6.684460199647	0.001000199647
0	928	6.744471165794	0.001000165794
0	931	6.824038704787	0.000999704787
0	934	6.829569461079	0.001000461079
0	937	6.859041406469	0.001000406469
0	940	6.871832755323	0.000999755323
0	943	6.87935409483	0.00100009483
0	946	6.897843890473	0.000999890473
0	949	6.904125678049	0.000999678049
0	952	6.917966187209	0.001000187209
0	955	6.920058835925	0.000999835925
0	958	6.928473279972	0.001000279972
0	961	7.01257157058	0.00099957058
0	964	7.017583334328	0.001000334328
0	967	7.028904848754	0.000999848754
0	970	7.034004864584	0.000999864584
0	973	7.040443296147	0.001000296147
0	976	7.055550281354	0.001000281354
0	979	7.072208839492	0.000999839492
0	982	7.108362502162	0.000999502162
0	985	7.113704881792	0.000999881792
0	988	7.117654669401	0.000999669401
0	991	7.133516812951	0.000999812951
0	994	7.189375827625	0.000999827625
0	997	7.238206436507	0.001000436507
0	1000	7.247073508216	0.000999508216
0	1003	7.253280799159	0.000999799159
0	1006	7.290253227039	0.001000227039
0	1009	7.308116326597	0.001000326597
0	1012	7.312490353336	0.001000353336
0	1017	7.324809849191	0.000999849191
0	1018	7.325653608398	0.000999608398
0	1021	7.336801952192	0.000999952192
0	1024	7.339710398878	0.001000398878
0	1027	7.340730230672	0.001000230672
0	1030	7.344734439322	0.001000439322
0	1033	7.364899646048	0.000999646048
0	1036	7.367181917395	0.000999917395
0	1039	7.374063738271	0.000999738271
0	1042	7.380141653515	0.000999653515
0	1045	7.392505058251	0.001000058251
0	1048	7.461481210938	0.001000210938
0	1051	7.465380793878	0.000999793878
0	1054	7.504203091164	0.001000091164
0	1057	7.523251394066	0.001000394066
0	1060	7.602905806687	0.000999806687
0	1065	7.650838950579	0.000999950579
0	1068	7.660554736176	0.000999736176
0	1071	7.671273173367	0.001000173367
0	1074	7.680023835575	0.000999835575
0	1077	7.703791282209	0.001000282209
0	1080	7.709489495469	0.001000495469
0	1083	7.762508292379	0.001000292379
0	1086	7.789428106579	0.001000106579
0	1089	7.859046665228	0.000999665228
0	1092	7.865544750191	0.000999750191
0	1095	7.880767554394	0.000999554394
0	1098	7.896128436665	0.001000436665
0	1101	7.913289607525	0.000999607525
0	1104	7.94394529357	0.00100029357
0	1107	7.966024077381	0.001000077381
0	1110	8.015316080323	0.001000080323
0	1113	8.018538115056	0.001000115056
0	1118	8.040376524835	0.000999524835
0	1119	8.041131424041	0.001000424041
0	1122	8.064722972385	0.000999972385
0	1125	8.073532276903	0.001000276903
0	1128	8.080043668509	0.000999668509
0	1131	8.113299584643	0.000999584643
0	1134	8.12237768888	0.00099968888
0	1137	8.144365300166	0.001000300166
0	1140	8.15438690742	0.00099990742
0	1143	8.169020041102	0.001000041102
0	1146	8.180684536904	0.000999536904
0	1149	8.18904225903	0.00100025903
0	1152	8.197769443852	0.001000443852
0	1155	8.206602834932	0.000999834932
0	1158	8.227491828122	0.000999828122
0	1161	8.25186620017	0.00100020017
0	1166	8.29021736516	0.00100036516
0	1169	8.291122851682	0.000999851682
0	1170	8.291747486008	0.001000486008
0	1173	8.303788725171	0.000999725171
0	1176	8.318053213948	0.001000213948
0	1179	8.327223759818	0.000999759818
0	1184	8.337802159249	0.001000159249
0	1185	8.338724555563	0.000999555563
0	1188	8.373563767712	0.000999767712
0	1193	8.401008584885	0.000999584885
0	1194	8.401364831043	0.000999831043
0	1197	8.434777567651	0.000999567651
0	1200	8.44836453672	0.00099953672
0	1203	8.462948335077	0.001000335077
0	1206	8.466562266529	0.001000266529
0	1209	8.599452305795	0.001000305795
0	1212	8.614425241224	0.001000241224
0	1215	8.61594457107	0.00099957107
0	1218	8.636105103626	0.001000103626
0	1221	8.642174503833	0.000999503833
0	1224	8.694804757203	0.000999757203
0	1227	8.702878032741	0.001000032741
0	1230	8.712291037593	0.001000037593
0	1233	8.746119828639	0.000999828639
0	1236	8.833431008993	0.001000008993
0	1239	8.87648681968	0.00099981968
0	1242	8.886867804567	0.000999804567
0	1245	8.901423305342	0.001000305342
0	1248	8.907813573697	0.000999573697
0	1251	8.948705922788	0.000999922788
0	1254	8.951261135306	0.001000135306
0	1257	8.987433089572	0.001000089572
0	1260	9.008102368585	0.001000368585
0	1263	9.035030861547	0.000999861547
0	1266	9.058517108369	0.001000108369
0	1269	9.061477501619	0.000999501619
0	1272	9.064735201583	0.001000201583
0	1275	9.071809384341	0.001000384341
0	1278	9.075042164489	0.001000164489
0	1281	9.094650338378	0.001000338378
0	1284	9.112659309222	0.001000309222
0	1287	9.114863905707	0.000999905707
0	1290	9.138444314034	0.001000314034
0	1293	9.161772872808	0.000999872808
0	1296	9.194583202408	0.001000202408
0	1299	9.204184606367	0.000999606367
0	1302	9.227234829891	0.000999829891
0	1305	9.232360267289	0.001000267289
0	1308	9.256059446207	0.001000446207
0	1311	9.265359339839	0.001000339839
0	1314	9.281023120111	0.001000120111
0	1317	9.287487830383	0.000999830383
0	1320	9.301096599664	0.000999599664
0	1325	9.307730963617	0.000999963617
0	1326	9.307880788644	0.000999788644
0	1329	9.328272174367	0.001000174367
0	1332	9.343849583737	0.000999583737
0	1335	9.357957177538	0.001000177538
0	1340	9.38549172536	0.00099972536
0	1341	9.386098892357	0.000999892357
0	1344	9.412332290759	0.001000290759
0	1347	9.460974197112	0.001000197112
0	1350	9.498924226056	0.001000226056
0	1353	9.511845100507	0.001000100507
0	1356	9.557120598175	0.000999598175
0	1359	9.579206639177	0.000999639177
0	1362	9.590678260266	0.001000260266
0	1365	9.612626294581	0.001000294581
0	1368	9.648766398546	0.001000398546
0	1371	9.651922895781	0.000999895781
0	1374	9.699922388114	0.001000388114
0	1377	9.758462198101	0.001000198101
0	1382	9.784219338069	0.001000338069
0	1383	9.784278876123	0.000999876123
0	1386	9.822179349536	0.001000349536
0	1389	9.829530199545	0.001000199545
0	1392	9.839225299168	0.001000299168
0	1395	9.856393677996	0.000999677996
0	1398	9.911453715966	0.000999715966
0	1401	9.943056237953	0.001000237953
0	1404	9.949596384329	0.001000384329
0	1407	9.965769722242	0.000999722242
0	1410	9.99291347654	0.00100047654

