version 3
run AttackOnNoSec50_record-0-20250829-01:44:00-80655
attr configname AttackOnNoSec50_record
attr datetime 20250829-01:44:00
attr datetimef 20250829-014400
attr experiment AttackOnNoSec50_record
attr inifile run_record.ini
attr iterationvars ""
attr iterationvarsd ""
attr iterationvarsf ""
attr measurement ""
attr network ned.LightIoTNetwork
attr processid 80655
attr repetition 0
attr replication #0
attr resultdir results
attr runnumber 0
attr seedset 0
config output-scalar-file results/AttackOnNoSec50_record-rep0.sca
config output-vector-file results/AttackOnNoSec50_record-rep0.vec
config seed-set 0
config network ned.LightIoTNetwork
config output-scalar-file results/AttackOnNoSec50_record-0.sca
config output-vector-file results/AttackOnNoSec50_record-0.vec
config **.scalar-recording true
config **.vector-recording true
config **.result-recording-modes all
config LightIoTNetwork.numSensorNodes 50
config **.gateway.securityEnabled false
config **.gateway.hmacWindow 3s
config **.gateway.procDelay 0s
config **.gateway.costForward_mJ 5
config **.gateway.costVerify_mJ 0
config **.gateway.batteryInit_mJ 5000
config **.fakeNode.enabled true
config **.fakeNode.attackMode 1
config **.fakeNode.replayInterval 2.5s
config sim-time-limit 10s
config rng-class cMersenneTwister
config num-rngs 1
config seed-set 123
config description "Secure Mode Simulation (includes all scenarios)"
config network ned.LightIoTNetwork
config ned-path .
config sim-time-limit 10s
config record-eventlog true
config cmdenv-express-mode false
config network ned.LightIoTNetwork
config sim-time-limit 10s
config output-scalar-file results/secure_output.sca
config output-vector-file results/secure_output.vec
config network LightIoTNetwork
config sim-time-limit 10s
config output-scalar-file results/nosecure_output.sca
config output-vector-file results/nosecure_output.vec
config network LightIoTNetwork
config sim-time-limit 10s
config output-scalar-file results/attack_output.sca
config output-vector-file results/attack_output.vec
config output-scalar-file results/AttackOnNoSec50_record-0.sca
config output-vector-file results/AttackOnNoSec50_record-0.vec
config **.scalar-recording true
config **.vector-recording true
config **.statistic-recording true
config **.result-recording-modes all
config rng-class cMersenneTwister
config num-rngs 1
config seed-set 123

vector 0 LightIoTNetwork.cloud EndToEndDelay_s ETV
0	3	0.52021839912	3.9912e-07
0	6	0.556712975726	-2.4274e-08
0	9	0.571036058711	5.8711e-08
0	12	0.587129296968	2.96968e-07
0	15	0.618274423759	4.23759e-07
0	18	0.640350777423	-2.22577e-07
0	21	0.772656294517	2.94517e-07
0	24	0.797534605255	-3.94745e-07
0	27	0.837396161631	1.61631e-07
0	30	0.868241537362	-4.62638e-07
0	33	0.88344152132	-4.7868e-07
0	36	0.884381708223	-2.91777e-07
0	39	0.892784793163	-2.06837e-07
0	42	0.923654796788	-2.03212e-07
0	45	0.937587209977	2.09977e-07
0	48	0.961479362799	3.62799e-07
0	51	0.973608040018	4.0018e-08
0	54	0.977665111655	1.11655e-07
0	57	0.979977171402	1.71402e-07
0	60	1.020477480488	4.80488e-07
0	63	1.028894921532	-7.8468e-08
0	66	1.044883177383	1.77383e-07
0	69	1.048813502304	-4.97696e-07
0	72	1.068044563755	-4.36245e-07
0	75	1.092844616389	-3.83611e-07
0	78	1.102763370378	3.70378e-07
0	81	1.123563696397	-3.03603e-07
0	84	1.145894115092	1.15092e-07
0	87	1.148171876557	-1.23443e-07
0	90	1.178879533662	-4.66338e-07
0	93	1.215189364972	3.64972e-07
0	96	1.220632651588	-3.48412e-07
0	99	1.278156756889	-2.43111e-07
0	102	1.280529175652	1.75652e-07
0	105	1.291725033429	3.3429e-08
0	108	1.299158563837	-4.36163e-07
0	111	1.300910752499	-2.47501e-07
0	114	1.312168726465	-2.73535e-07
0	117	1.33261984284	-1.5716e-07
0	120	1.336078768829	-2.31171e-07
0	123	1.34426574409	-2.5591e-07
0	126	1.347251737257	-2.62743e-07
0	129	1.357945619849	-3.80151e-07
0	132	1.370012145257	1.45257e-07
0	135	1.370087251067	2.51067e-07
0	138	1.391773001757	1.757e-09
0	141	1.425596633228	-3.66772e-07
0	144	1.457155154319	1.54319e-07
0	147	1.463662764058	-2.35942e-07
0	150	1.478618342895	3.42895e-07
0	153	1.485383632826	-3.67174e-07
0	156	1.536622357368	3.57368e-07
0	159	1.578510704357	-2.95643e-07
0	162	1.644720443059	4.43059e-07
0	165	1.669997547846	-4.52154e-07
0	168	1.676063080691	8.0691e-08
0	171	1.693837815802	-1.84198e-07
0	174	1.780466993479	-6.521e-09
0	177	1.820707990229	-9.771e-09
0	180	1.821152659645	-3.40355e-07
0	183	1.832116246177	2.46177e-07
0	186	1.880897281319	2.81319e-07
0	189	1.881423071259	7.1259e-08
0	192	1.900651674671	-3.25329e-07
0	195	1.91488486398	-1.3602e-07
0	198	1.939228445524	4.45524e-07
0	201	1.940168428747	4.28747e-07
0	204	1.944805372227	3.72227e-07
0	207	1.958829894289	-1.05711e-07
0	210	1.975166152464	1.52464e-07
0	213	1.993277779408	-2.20592e-07
0	216	2.044004580658	-4.19342e-07
0	219	2.067302321876	3.21876e-07
0	222	2.070142412	4.12e-07
0	225	2.091431363485	3.63485e-07
0	228	2.138161874469	-1.25531e-07
0	231	2.150781114074	1.14074e-07
0	234	2.182258174661	1.74661e-07
0	237	2.191512985434	-1.4566e-08
0	240	2.204083390673	3.90673e-07
0	243	2.208039042121	4.2121e-08
0	246	2.211203657137	-3.42863e-07
0	249	2.211581103737	1.03737e-07
0	252	2.237802057341	5.7341e-08
0	255	2.278447661316	-3.38684e-07
0	258	2.28932824959	2.4959e-07
0	261	2.295797404927	4.04927e-07
0	264	2.320055414736	4.14736e-07
0	267	2.329576053889	5.3889e-08
0	270	2.345522068721	6.8721e-08
0	273	2.354858671688	-3.28312e-07
0	276	2.358626472531	4.72531e-07
0	279	2.36324784928	-1.5072e-07
0	282	2.370206343569	3.43569e-07
0	285	2.393068717933	-2.82067e-07
0	288	2.394872566219	-4.33781e-07
0	291	2.420224478841	4.78841e-07
0	294	2.428672209569	2.09569e-07
0	297	2.429897309001	3.09001e-07
0	300	2.447162766569	-2.33431e-07
0	303	2.492657698085	-3.01915e-07
0	306	2.524342660047	-3.39953e-07
0	309	2.596472042054	4.2054e-08
0	312	2.605365514988	-4.85012e-07
0	315	2.639921016991	2.139921016991
0	318	2.722242345195	3.45195e-07
0	321	2.72439587959	-1.2041e-07
0	324	2.742395209428	2.09428e-07
0	327	2.753414561879	-4.38121e-07
0	330	2.761787401698	4.01698e-07
0	333	2.847719765641	-2.34359e-07
0	336	2.851309994934	-5.066e-09
0	339	2.893690489838	4.89838e-07
0	342	2.897758581582	-4.18418e-07
0	345	2.897793137701	1.37701e-07
0	348	2.90696006976	6.976e-08
0	351	2.911518945731	-5.4269e-08
0	354	2.931176159298	1.59298e-07
0	357	2.932490600086	-3.99914e-07
0	360	2.935107929772	-7.0228e-08
0	363	2.96087930291	3.0291e-07
0	366	2.966079608491	-3.91509e-07
0	369	2.983531915489	-8.4511e-08
0	372	3.054871712438	-2.87562e-07
0	375	3.065798464371	4.64371e-07
0	378	3.101408330398	3.30398e-07
0	381	3.102252786328	-2.13672e-07
0	384	3.114295432112	4.32112e-07
0	387	3.121574646001	-3.53999e-07
0	390	3.157222311571	3.11571e-07
0	393	3.177828423818	4.23818e-07
0	396	3.206450210419	2.10419e-07
0	399	3.23927509496	9.496e-08
0	402	3.240544415731	4.15731e-07
0	405	3.275402303319	3.03319e-07
0	408	3.281427195714	1.95714e-07
0	411	3.303016879968	-1.20032e-07
0	414	3.304211656517	-3.43483e-07
0	417	3.330529331137	3.31137e-07
0	420	3.333894843468	-1.56532e-07
0	423	3.352356712194	-2.87806e-07
0	426	3.355000324362	3.24362e-07
0	429	3.356917230924	2.30924e-07
0	432	3.365172723634	-2.76366e-07
0	435	3.410456321621	3.21621e-07
0	438	3.415841669822	-3.30178e-07
0	441	3.423965053679	5.3679e-08
0	444	3.430497365399	3.65399e-07
0	447	3.440813961765	-3.8235e-08
0	450	3.465558561729	-4.38271e-07
0	453	3.476524925838	-7.4162e-08
0	456	3.480904051941	5.1941e-08
0	459	3.480999882379	-1.17621e-07
0	462	3.529404827906	-1.72094e-07
0	465	3.677160104737	1.04737e-07
0	468	3.683623919449	-8.0551e-08
0	471	3.69238938815	3.8815e-07
0	474	3.694131238991	2.38991e-07
0	477	3.738573916676	-8.3324e-08
0	480	3.799519638949	-3.61051e-07
0	483	3.810622637905	-3.62095e-07
0	486	3.811316400301	4.00301e-07
0	489	3.850324496393	4.96393e-07
0	492	3.876543087512	8.7512e-08
0	495	3.913957201131	2.01131e-07
0	498	3.927405173564	1.73564e-07
0	501	3.944213932427	-6.7573e-08
0	504	3.945810889778	-1.10222e-07
0	507	3.950013369601	3.69601e-07
0	510	3.967873400683	4.00683e-07
0	513	3.981405676156	-3.23844e-07
0	516	3.984586565569	-4.34431e-07
0	519	3.988181526074	-4.73926e-07
0	522	4.008128442569	4.42569e-07
0	525	4.03091792944	-7.056e-08
0	528	4.108321550768	-4.49232e-07
0	531	4.112766024377	2.4377e-08
0	534	4.117442085362	8.5362e-08
0	537	4.138216303754	3.03754e-07
0	540	4.141542214807	2.14807e-07
0	543	4.185639852798	-1.47202e-07
0	546	4.20176187572	-1.2428e-07
0	549	4.207433885568	-1.14432e-07
0	552	4.27275717021	1.7021e-07
0	555	4.286840876331	-1.23669e-07
0	558	4.288410549332	-4.50668e-07
0	561	4.288994984887	-1.5113e-08
0	564	4.309012831561	-1.68439e-07
0	567	4.310862023429	2.3429e-08
0	570	4.31447783173	-1.6827e-07
0	573	4.334564474692	4.74692e-07
0	576	4.341753058182	5.8182e-08
0	579	4.346282319538	3.19538e-07
0	582	4.348829761939	-2.38061e-07
0	585	4.37248888095	-1.1905e-07
0	588	4.374219817528	-1.82472e-07
0	591	4.375737020466	2.0466e-08
0	594	4.394846914382	-8.5618e-08
0	597	4.404458984547	-1.5453e-08
0	600	4.435001476108	4.76108e-07
0	603	4.489753059344	5.9344e-08
0	606	4.494827732816	-2.67184e-07
0	609	4.512088233699	2.33699e-07
0	612	4.570152284065	2.84065e-07
0	615	4.641319205937	2.05937e-07
0	618	4.680788851762	-1.48238e-07
0	621	4.688324544626	-4.55374e-07
0	624	4.724198908825	-9.1175e-08
0	627	4.784827097133	9.7133e-08
0	630	4.790536055947	5.5947e-08
0	633	4.825854105083	1.05083e-07
0	636	4.850740977236	-2.2764e-08
0	639	4.868732881685	-1.18315e-07
0	642	4.888830258558	2.58558e-07
0	645	4.92840758143	-4.1857e-07
0	648	4.955189389595	3.89595e-07
0	651	4.955750765372	-2.34628e-07
0	654	4.970830751862	-2.48138e-07
0	657	4.974426111951	1.11951e-07
0	660	5.00388451526	-4.8474e-07
0	663	5.024121775943	-2.24057e-07
0	666	5.031561932759	-6.7241e-08
0	669	5.04056317145	1.7145e-07
0	672	5.057463259296	2.59296e-07
0	675	5.070813784936	-2.15064e-07
0	678	5.072253414709	4.14709e-07
0	681	5.103842627351	-3.72649e-07
0	684	5.123906243173	2.43173e-07
0	687	5.139921016991	4.639921016991
0	690	5.164941000566	5.66e-10
0	693	5.170846825886	-1.74114e-07
0	696	5.200975867686	-1.32314e-07
0	699	5.22271642522	4.2522e-07
0	702	5.236849691159	-3.08841e-07
0	705	5.251054215758	2.15758e-07
0	708	5.283654525736	-4.74264e-07
0	711	5.303095451509	4.51509e-07
0	714	5.320326422154	4.22154e-07
0	717	5.332170848408	-1.51592e-07
0	720	5.346547196153	1.96153e-07
0	723	5.349368341732	3.41732e-07
0	726	5.355471012276	1.2276e-08
0	729	5.365342056797	5.6797e-08
0	732	5.373686741013	-2.58987e-07
0	735	5.373820772813	-2.27187e-07
0	738	5.379615330977	3.30977e-07
0	741	5.389229993337	-6.663e-09
0	744	5.402096075285	7.5285e-08
0	747	5.40453505977	5.977e-08
0	750	5.415926873824	-1.26176e-07
0	753	5.458763188309	1.88309e-07
0	756	5.463705608902	-3.91098e-07
0	759	5.489801237126	2.37126e-07
0	762	5.511031702719	-2.97281e-07
0	765	5.564178721746	-2.78254e-07
0	768	5.601634169183	1.69183e-07
0	771	5.681797109591	1.09591e-07
0	774	5.720359252301	2.52301e-07
0	777	5.724003758468	-2.41532e-07
0	780	5.742842619121	-3.80879e-07
0	783	5.767228501151	-4.98849e-07
0	786	5.849457190465	1.90465e-07
0	789	5.854486621403	-3.78597e-07
0	792	5.855502395146	3.95146e-07
0	795	5.875762061588	6.1588e-08
0	798	5.889305529184	-4.70816e-07
0	801	5.900574944447	-5.5553e-08
0	804	5.915407230938	2.30938e-07
0	807	5.964188278047	2.78047e-07
0	810	5.964520696784	-3.03216e-07
0	813	5.974693848147	-1.51853e-07
0	816	5.988419094262	9.4262e-08
0	819	6.041925183776	1.83776e-07
0	822	6.042296328535	3.28535e-07
0	825	6.055428222613	2.22613e-07
0	828	6.088105691922	-3.08078e-07
0	831	6.101453948022	-5.1978e-08
0	834	6.115099362425	3.62425e-07
0	837	6.134263282223	2.82223e-07
0	840	6.150969205797	2.05797e-07
0	843	6.151224687463	-3.12537e-07
0	846	6.166045767907	-2.32093e-07
0	849	6.17050620108	2.0108e-07
0	852	6.210362065489	6.5489e-08
0	855	6.270827509602	-4.90398e-07
0	858	6.280285187344	1.87344e-07
0	861	6.284239034121	3.4121e-08
0	864	6.293732118327	1.18327e-07
0	867	6.293734589777	-4.10223e-07
0	870	6.354927291534	2.91534e-07
0	873	6.356772845191	-1.54809e-07
0	876	6.359692325444	3.25444e-07
0	879	6.393595269836	2.69836e-07
0	882	6.396248729388	-2.70612e-07
0	885	6.398384894104	-1.05896e-07
0	888	6.398711093794	9.3794e-08
0	891	6.399903898592	-1.01408e-07
0	894	6.407785994512	-5.488e-09
0	897	6.444944334961	3.34961e-07
0	900	6.463511853573	-1.46427e-07
0	903	6.471690598642	-4.01358e-07
0	906	6.515696274396	2.74396e-07
0	909	6.526991214276	2.14276e-07
0	912	6.534132755454	-2.44546e-07
0	915	6.570730785978	-2.14022e-07
0	918	6.584656914835	-8.5165e-08
0	921	6.657373262057	2.62057e-07
0	924	6.667606615601	-3.84399e-07
0	927	6.683460199647	1.99647e-07
0	930	6.743471165794	1.65794e-07
0	933	6.823038704787	-2.95213e-07
0	936	6.828569461079	4.61079e-07
0	939	6.858041406469	4.06469e-07
0	942	6.870832755323	-2.44677e-07
0	945	6.87835409483	9.483e-08
0	948	6.896843890473	-1.09527e-07
0	951	6.903125678049	-3.21951e-07
0	954	6.916966187209	1.87209e-07
0	957	6.919058835925	-1.64075e-07
0	960	6.927473279972	2.79972e-07
0	963	7.01157157058	-4.2942e-07
0	966	7.016583334328	3.34328e-07
0	969	7.027904848754	-1.51246e-07
0	972	7.033004864584	-1.35416e-07
0	975	7.039443296147	2.96147e-07
0	978	7.054550281354	2.81354e-07
0	981	7.071208839492	-1.60508e-07
0	984	7.107362502162	-4.97838e-07
0	987	7.112704881792	-1.18208e-07
0	990	7.116654669401	-3.30599e-07
0	993	7.132516812951	-1.87049e-07
0	996	7.188375827625	-1.72375e-07
0	999	7.237206436507	4.36507e-07
0	1002	7.246073508216	-4.91784e-07
0	1005	7.252280799159	-2.00841e-07
0	1008	7.289253227039	2.27039e-07
0	1011	7.307116326597	3.26597e-07
0	1014	7.311490353336	3.53336e-07
0	1017	7.323809849191	-1.50809e-07
0	1020	7.324653608398	-3.91602e-07
0	1023	7.335801952192	-4.7808e-08
0	1026	7.338710398878	3.98878e-07
0	1029	7.339730230672	2.30672e-07
0	1032	7.343734439322	4.39322e-07
0	1035	7.363899646048	-3.53952e-07
0	1038	7.366181917395	-8.2605e-08
0	1041	7.373063738271	-2.61729e-07
0	1044	7.379141653515	-3.46485e-07
0	1047	7.391505058251	5.8251e-08
0	1050	7.460481210938	2.10938e-07
0	1053	7.464380793878	-2.06122e-07
0	1056	7.503203091164	9.1164e-08
0	1059	7.522251394066	3.94066e-07
0	1062	7.601905806687	-1.93313e-07
0	1065	7.639921016991	7.139921016991
0	1068	7.649838950579	-4.9421e-08
0	1071	7.659554736176	-2.63824e-07
0	1074	7.670273173367	1.73367e-07
0	1077	7.679023835575	-1.64425e-07
0	1080	7.702791282209	2.82209e-07
0	1083	7.708489495469	4.95469e-07
0	1086	7.761508292379	2.92379e-07
0	1089	7.788428106579	1.06579e-07
0	1092	7.858046665228	-3.34772e-07
0	1095	7.864544750191	-2.49809e-07
0	1098	7.879767554394	-4.45606e-07
0	1101	7.895128436665	4.36665e-07
0	1104	7.912289607525	-3.92475e-07
0	1107	7.94294529357	2.9357e-07
0	1110	7.965024077381	7.7381e-08
0	1113	8.014316080323	8.0323e-08
0	1116	8.017538115056	1.15056e-07
0	1119	8.039376524835	-4.75165e-07
0	1122	8.040131424041	4.24041e-07
0	1125	8.063722972385	-2.7615e-08
0	1128	8.072532276903	2.76903e-07
0	1131	8.079043668509	-3.31491e-07
0	1134	8.112299584643	-4.15357e-07
0	1137	8.12137768888	-3.1112e-07
0	1140	8.143365300166	3.00166e-07
0	1143	8.15338690742	-9.258e-08
0	1146	8.168020041102	4.1102e-08
0	1149	8.179684536904	-4.63096e-07
0	1152	8.18804225903	2.5903e-07
0	1155	8.196769443852	4.43852e-07
0	1158	8.205602834932	-1.65068e-07
0	1161	8.226491828122	-1.71878e-07
0	1164	8.25086620017	2.0017e-07
0	1167	8.28921736516	3.6516e-07
0	1170	8.290122851682	-1.48318e-07
0	1173	8.290747486008	4.86008e-07
0	1176	8.302788725171	-2.74829e-07
0	1179	8.317053213948	2.13948e-07
0	1182	8.326223759818	-2.40182e-07
0	1185	8.336802159249	1.59249e-07
0	1188	8.337724555563	-4.44437e-07
0	1191	8.372563767712	-2.32288e-07
0	1194	8.400008584885	-4.15115e-07
0	1197	8.400364831043	-1.68957e-07
0	1200	8.433777567651	-4.32349e-07
0	1203	8.44736453672	-4.6328e-07
0	1206	8.461948335077	3.35077e-07
0	1209	8.465562266529	2.66529e-07
0	1212	8.598452305795	3.05795e-07
0	1215	8.613425241224	2.41224e-07
0	1218	8.61494457107	-4.2893e-07
0	1221	8.635105103626	1.03626e-07
0	1224	8.641174503833	-4.96167e-07
0	1227	8.693804757203	-2.42797e-07
0	1230	8.701878032741	3.2741e-08
0	1233	8.711291037593	3.7593e-08
0	1236	8.745119828639	-1.71361e-07
0	1239	8.832431008993	8.993e-09
0	1242	8.87548681968	-1.8032e-07
0	1245	8.885867804567	-1.95433e-07
0	1248	8.900423305342	3.05342e-07
0	1251	8.906813573697	-4.26303e-07
0	1254	8.947705922788	-7.7212e-08
0	1257	8.950261135306	1.35306e-07
0	1260	8.986433089572	8.9572e-08
0	1263	9.007102368585	3.68585e-07
0	1266	9.034030861547	-1.38453e-07
0	1269	9.057517108369	1.08369e-07
0	1272	9.060477501619	-4.98381e-07
0	1275	9.063735201583	2.01583e-07
0	1278	9.070809384341	3.84341e-07
0	1281	9.074042164489	1.64489e-07
0	1284	9.093650338378	3.38378e-07
0	1287	9.111659309222	3.09222e-07
0	1290	9.113863905707	-9.4293e-08
0	1293	9.137444314034	3.14034e-07
0	1296	9.160772872808	-1.27192e-07
0	1299	9.193583202408	2.02408e-07
0	1302	9.203184606367	-3.93633e-07
0	1305	9.226234829891	-1.70109e-07
0	1308	9.231360267289	2.67289e-07
0	1311	9.255059446207	4.46207e-07
0	1314	9.264359339839	3.39839e-07
0	1317	9.280023120111	1.20111e-07
0	1320	9.286487830383	-1.69617e-07
0	1323	9.300096599664	-4.00336e-07
0	1326	9.306730963617	-3.6383e-08
0	1329	9.306880788644	-2.11356e-07
0	1332	9.327272174367	1.74367e-07
0	1335	9.342849583737	-4.16263e-07
0	1338	9.356957177538	1.77538e-07
0	1341	9.38449172536	-2.7464e-07
0	1344	9.385098892357	-1.07643e-07
0	1347	9.411332290759	2.90759e-07
0	1350	9.459974197112	1.97112e-07
0	1353	9.497924226056	2.26056e-07
0	1356	9.510845100507	1.00507e-07
0	1359	9.556120598175	-4.01825e-07
0	1362	9.578206639177	-3.60823e-07
0	1365	9.589678260266	2.60266e-07
0	1368	9.611626294581	2.94581e-07
0	1371	9.647766398546	3.98546e-07
0	1374	9.650922895781	-1.04219e-07
0	1377	9.698922388114	3.88114e-07
0	1380	9.757462198101	1.98101e-07
0	1383	9.783219338069	3.38069e-07
0	1386	9.783278876123	-1.23877e-07
0	1389	9.821179349536	3.49536e-07
0	1392	9.828530199545	1.99545e-07
0	1395	9.838225299168	2.99168e-07
0	1398	9.855393677996	-3.22004e-07
0	1401	9.910453715966	-2.84034e-07
0	1404	9.942056237953	2.37953e-07
0	1407	9.948596384329	3.84329e-07
0	1410	9.964769722242	-2.77758e-07
0	1413	9.99191347654	4.7654e-07

