version 3
run Attack20_record-0-20250829-01:43:58-80151
attr configname Attack20_record
attr datetime 20250829-01:43:58
attr datetimef 20250829-014358
attr experiment Attack20_record
attr inifile run_record.ini
attr iterationvars ""
attr iterationvarsd ""
attr iterationvarsf ""
attr measurement ""
attr network ned.LightIoTNetwork
attr processid 80151
attr repetition 0
attr replication #0
attr resultdir results
attr runnumber 0
attr seedset 0
config output-scalar-file results/Attack20_record-rep0.sca
config output-vector-file results/Attack20_record-rep0.vec
config seed-set 0
config network ned.LightIoTNetwork
config output-scalar-file results/Attack20_record-0.sca
config output-vector-file results/Attack20_record-0.vec
config **.scalar-recording true
config **.vector-recording true
config **.result-recording-modes all
config LightIoTNetwork.numSensorNodes 20
config **.fakeNode.enabled true
config **.fakeNode.attackMode 1
config **.fakeNode.replayInterval 2.5s
config **.gateway.securityEnabled true
config **.gateway.hmacWindow 1s
config **.gateway.procDelay 1ms
config **.gateway.costForward_mJ 5
config **.gateway.costVerify_mJ 5
config **.gateway.batteryInit_mJ 5000
config sim-time-limit 10s
config description "Secure Mode Simulation (includes all scenarios)"
config network ned.LightIoTNetwork
config ned-path .
config sim-time-limit 10s
config record-eventlog true
config cmdenv-express-mode false
config network ned.LightIoTNetwork
config sim-time-limit 10s
config output-scalar-file results/secure_output.sca
config output-vector-file results/secure_output.vec
config network LightIoTNetwork
config sim-time-limit 10s
config output-scalar-file results/nosecure_output.sca
config output-vector-file results/nosecure_output.vec
config network LightIoTNetwork
config sim-time-limit 10s
config output-scalar-file results/attack_output.sca
config output-vector-file results/attack_output.vec
config output-scalar-file results/Attack20_record-0.sca
config output-vector-file results/Attack20_record-0.vec
config **.scalar-recording true
config **.vector-recording true
config **.statistic-recording true
config **.result-recording-modes all
config rng-class cMersenneTwister
config num-rngs 1
config seed-set 123

vector 0 LightIoTNetwork.cloud EndToEndDelay_s ETV
0	3	0.557712975726	0.000999975726
0	6	0.773656294517	0.001000294517
0	9	0.798534605255	0.000999605255
0	14	0.88444152132	0.00099952132
0	15	0.885381708223	0.000999708223
0	18	0.924654796788	0.000999796788
0	21	0.938587209977	0.001000209977
0	24	0.978665111655	0.001000111655
0	27	1.045883177383	0.001000177383
0	30	1.049813502304	0.000999502304
0	33	1.093844616389	0.000999616389
0	36	1.103763370378	0.001000370378
0	39	1.124563696397	0.000999696397
0	42	1.146894115092	0.001000115092
0	45	1.216189364972	0.001000364972
0	48	1.34526574409	0.00099974409
0	51	1.348251737257	0.000999737257
0	54	1.358945619849	0.000999619849
0	57	1.392773001757	0.001000001757
0	60	1.464662764058	0.000999764058
0	63	1.620146721019	0.000999721019
0	66	1.779435278823	0.001000278823
0	69	1.794530039535	0.001000039535
0	72	1.863938666856	0.000999666856
0	75	1.892872323397	0.001000323397
0	78	1.898050434071	0.001000434071
0	81	1.967239361698	0.001000361698
0	84	2.005802963743	0.000999963743
0	87	2.007807050202	0.001000050202
0	90	2.009774123434	0.001000123434
0	93	2.013362409709	0.001000409709
0	96	2.098212003869	0.001000003869
0	99	2.1234789917	0.0009999917
0	102	2.21341808366	0.00100008366
0	105	2.276321892742	0.000999892742
0	108	2.307620395836	0.001000395836
0	111	2.400897095468	0.001000095468
0	114	2.4329480489	0.0010000489
0	117	2.46679045197	0.00100045197
0	120	2.560386432637	0.001000432637
0	123	2.614868329023	0.001000329023
0	128	2.83926699159	0.00099999159
0	131	2.854712190035	0.001000190035
0	134	2.856234539416	0.000999539416
0	137	2.896967819495	0.000999819495
0	140	2.929457848495	0.000999848495
0	143	2.954156269201	0.001000269201
0	146	3.00301526843	0.00100026843
0	149	3.026882660969	0.000999660969
0	152	3.029766367957	0.001000367957
0	155	3.037758326832	0.001000326832
0	158	3.05193358052	0.00099958052
0	161	3.130953637346	0.000999637346
0	164	3.302351867383	0.000999867383
0	167	3.311990061472	0.001000061472
0	170	3.322078616753	0.000999616753
0	173	3.328045016829	0.001000016829
0	176	3.415880437124	0.001000437124
0	179	3.461510536516	0.000999536516
0	182	3.51329755492	0.00099955492
0	185	3.552134797932	0.000999797932
0	188	3.840277890837	0.000999890837
0	191	3.847464606608	0.000999606608
0	194	3.881199903854	0.000999903854
0	197	3.894113728891	0.000999728891
0	200	3.902095825619	0.000999825619
0	203	3.906773228034	0.001000228034
0	206	3.94314463816	0.00099963816
0	209	3.967693299589	0.001000299589
0	212	3.991710861794	0.000999861794
0	215	4.053293468127	0.001000468127
0	218	4.074352725013	0.000999725013
0	221	4.07541791445	0.00099991445
0	224	4.289287857083	0.000999857083
0	227	4.325738667113	0.000999667113
0	230	4.408564711105	0.000999711105
0	233	4.410828231809	0.001000231809
0	238	4.451500534428	0.000999534428
0	239	4.452244496693	0.001000496693
0	242	4.485199135332	0.001000135332
0	245	4.574747490301	0.001000490301
0	250	4.813969799199	0.000999799199
0	251	4.814140918919	0.000999918919
0	254	4.82768428137	0.00100028137
0	257	4.920726142938	0.001000142938
0	260	4.92793432225	0.00100032225
0	263	4.976497980416	0.000999980416
0	266	4.987475385353	0.001000385353
0	269	4.998321306029	0.001000306029
0	272	5.000735041754	0.001000041754
0	275	5.016429237346	0.001000237346
0	278	5.025838436534	0.001000436534
0	281	5.04704834849	0.00100034849
0	284	5.215073116753	0.001000116753
0	289	5.371650381036	0.001000381036
0	292	5.375875894887	0.000999894887
0	295	5.417253942204	0.000999942204
0	298	5.42424268911	0.00099968911
0	301	5.43239436515	0.00100036515
0	304	5.482432575408	0.000999575408
0	307	5.499238490522	0.001000490522
0	310	5.801690101878	0.001000101878
0	313	5.84099572955	0.00099972955
0	316	5.848343283613	0.001000283613
0	319	5.925359047739	0.001000047739
0	322	5.929250737069	0.000999737069
0	325	5.932996943988	0.000999943988
0	328	6.007056044204	0.001000044204
0	331	6.01251599679	0.00099999679
0	334	6.025333081441	0.001000081441
0	337	6.056460100946	0.001000100946
0	340	6.063418414932	0.001000414932
0	343	6.115489150467	0.001000150467
0	346	6.165731437016	0.001000437016
0	349	6.354524098638	0.001000098638
0	352	6.369138049449	0.001000049449
0	355	6.373127806721	0.000999806721
0	358	6.412193443229	0.001000443229
0	361	6.414226492704	0.001000492704
0	364	6.45709638635	0.00100038635
0	367	6.466840014024	0.001000014024
0	370	6.723765129711	0.001000129711
0	373	6.856887326971	0.001000326971
0	376	6.875946194002	0.001000194002
0	379	6.879609202011	0.001000202011
0	382	6.888799396692	0.001000396692
0	385	6.946372515544	0.000999515544
0	388	6.988666040333	0.001000040333
0	391	6.999078114586	0.001000114586
0	394	7.018203478842	0.001000478842
0	397	7.085151691246	0.000999691246
0	400	7.088965474556	0.001000474556
0	403	7.10243020707	0.00100020707
0	406	7.127617061114	0.001000061114
0	409	7.331413123453	0.001000123453
0	412	7.37909331729	0.00100031729
0	415	7.407859732931	0.000999732931
0	418	7.436727030783	0.001000030783
0	421	7.508615492494	0.001000492494
0	424	7.542478707735	0.000999707735
0	427	7.552388279394	0.001000279394
0	430	7.717495369374	0.001000369374
0	433	7.790752140595	0.001000140595
0	438	7.858812201325	0.001000201325
0	441	7.903075649053	0.000999649053
0	444	7.909768500295	0.000999500295
0	447	7.926041036635	0.001000036635
0	450	7.936604358324	0.001000358324
0	453	7.971298412162	0.001000412162
0	456	8.036518756602	0.000999756602
0	459	8.04552686645	0.00099986645
0	462	8.051656374032	0.001000374032
0	465	8.07349387554	0.00099987554
0	468	8.198347553166	0.000999553166
0	471	8.303302017249	0.001000017249
0	474	8.338321357149	0.001000357149
0	477	8.360472573641	0.000999573641
0	480	8.404038440179	0.001000440179
0	483	8.506075342395	0.001000342395
0	486	8.546347729745	0.000999729745
0	489	8.628483458024	0.001000458024
0	492	8.700347967048	0.000999967048
0	495	8.771641701529	0.000999701529
0	498	8.846440075686	0.001000075686
0	501	8.874399235169	0.001000235169
0	504	8.939078809764	0.000999809764
0	507	8.948262924165	0.000999924165
0	510	8.949924648016	0.000999648016
0	513	8.989596654823	0.000999654823
0	516	9.044318924959	0.000999924959
0	519	9.047320658642	0.000999658642
0	522	9.056305984617	0.000999984617
0	525	9.117135654364	0.000999654364
0	528	9.156838466856	0.001000466856
0	531	9.277095070969	0.001000070969
0	534	9.353510656183	0.000999656183
0	537	9.387533539649	0.000999539649
0	540	9.461619055201	0.001000055201
0	543	9.489897679746	0.000999679746
0	546	9.510061520734	0.000999520734
0	549	9.530354798373	0.000999798373
0	552	9.733830042298	0.001000042298
0	555	9.772799648087	0.000999648087
0	558	9.840110117359	0.001000117359
0	561	9.903834062884	0.001000062884
0	564	9.907805866211	0.000999866211
0	567	9.942542687686	0.000999687686
0	570	9.980957197652	0.001000197652
0	573	9.982344249334	0.001000249334

