version 3
run AttackOnNoSec50_record-0-20250829-01:44:00-80823
attr configname AttackOnNoSec50_record
attr datetime 20250829-01:44:00
attr datetimef 20250829-014400
attr experiment AttackOnNoSec50_record
attr inifile run_record.ini
attr iterationvars ""
attr iterationvarsd ""
attr iterationvarsf ""
attr measurement ""
attr network ned.LightIoTNetwork
attr processid 80823
attr repetition 0
attr replication #0
attr resultdir results
attr runnumber 0
attr seedset 2
config output-scalar-file results/AttackOnNoSec50_record-rep2.sca
config output-vector-file results/AttackOnNoSec50_record-rep2.vec
config seed-set 2
config network ned.LightIoTNetwork
config output-scalar-file results/AttackOnNoSec50_record-0.sca
config output-vector-file results/AttackOnNoSec50_record-0.vec
config **.scalar-recording true
config **.vector-recording true
config **.result-recording-modes all
config LightIoTNetwork.numSensorNodes 50
config **.gateway.securityEnabled false
config **.gateway.hmacWindow 3s
config **.gateway.procDelay 0s
config **.gateway.costForward_mJ 5
config **.gateway.costVerify_mJ 0
config **.gateway.batteryInit_mJ 5000
config **.fakeNode.enabled true
config **.fakeNode.attackMode 1
config **.fakeNode.replayInterval 2.5s
config sim-time-limit 10s
config rng-class cMersenneTwister
config num-rngs 1
config seed-set 123
config description "Secure Mode Simulation (includes all scenarios)"
config network ned.LightIoTNetwork
config ned-path .
config sim-time-limit 10s
config record-eventlog true
config cmdenv-express-mode false
config network ned.LightIoTNetwork
config sim-time-limit 10s
config output-scalar-file results/secure_output.sca
config output-vector-file results/secure_output.vec
config network LightIoTNetwork
config sim-time-limit 10s
config output-scalar-file results/nosecure_output.sca
config output-vector-file results/nosecure_output.vec
config network LightIoTNetwork
config sim-time-limit 10s
config output-scalar-file results/attack_output.sca
config output-vector-file results/attack_output.vec
config output-scalar-file results/AttackOnNoSec50_record-0.sca
config output-vector-file results/AttackOnNoSec50_record-0.vec
config **.scalar-recording true
config **.vector-recording true
config **.statistic-recording true
config **.result-recording-modes all
config rng-class cMersenneTwister
config num-rngs 1
config seed-set 123

vector 0 LightIoTNetwork.cloud EndToEndDelay_s ETV
0	3	0.525926227914	2.27914e-07
0	6	0.565286503639	-4.96361e-07
0	9	0.579645470949	4.70949e-07
0	12	0.596530921524	-7.8476e-08
0	15	0.616193322698	3.22698e-07
0	18	0.619950543856	-4.56144e-07
0	21	0.627159971744	-2.8256e-08
0	24	0.634579942329	-5.7671e-08
0	27	0.654426675523	-3.24477e-07
0	30	0.676984623773	-3.76227e-07
0	33	0.681727037299	3.7299e-08
0	36	0.684439862845	-1.37155e-07
0	39	0.685082081473	8.1473e-08
0	42	0.704648636049	-3.63951e-07
0	45	0.758498081472	8.1472e-08
0	48	0.766827276442	2.76442e-07
0	51	0.787868819898	-1.80102e-07
0	54	0.797018359881	3.59881e-07
0	57	0.799654677277	-3.22723e-07
0	60	0.82053643628	4.3628e-07
0	63	0.830334820319	-1.79681e-07
0	66	0.907307832502	-1.67498e-07
0	69	0.920367801562	-1.98438e-07
0	72	0.928122331155	3.31155e-07
0	75	0.935322393198	3.93198e-07
0	78	0.935994902626	-9.7374e-08
0	81	0.984749096213	9.6213e-08
0	84	0.98517591483	-8.517e-08
0	87	0.994236840401	-1.59599e-07
0	90	0.994289767928	-2.32072e-07
0	93	0.998561167624	1.67624e-07
0	96	1.00524608884	8.884e-08
0	99	1.013578117825	1.17825e-07
0	102	1.029142090352	9.0352e-08
0	105	1.046207316453	3.16453e-07
0	108	1.04966247594	4.7594e-07
0	111	1.086796978954	-2.1046e-08
0	114	1.119270970346	-2.9654e-08
0	117	1.121133833192	-1.66808e-07
0	120	1.13273773063	-2.6937e-07
0	123	1.183025995037	-4.963e-09
0	126	1.198862689314	-3.10686e-07
0	129	1.21975423093	2.3093e-07
0	132	1.285335147521	1.47521e-07
0	135	1.318226722069	-2.77931e-07
0	138	1.346561491257	4.91257e-07
0	141	1.353975290898	2.90898e-07
0	144	1.431540863588	-1.36412e-07
0	147	1.447730610846	-3.89154e-07
0	150	1.46963240765	4.0765e-07
0	153	1.510488904267	-9.5733e-08
0	156	1.517920058453	5.8453e-08
0	159	1.524012504378	-4.95622e-07
0	162	1.539079253981	2.53981e-07
0	165	1.564011785108	-2.14892e-07
0	168	1.58799133841	3.3841e-07
0	171	1.604545199406	1.99406e-07
0	174	1.624788508238	-4.91762e-07
0	177	1.642621585773	-4.14227e-07
0	180	1.655221311096	3.11096e-07
0	183	1.669691557996	-4.42004e-07
0	186	1.670542120794	1.20794e-07
0	189	1.678816797957	-2.02043e-07
0	192	1.732729981328	-1.8672e-08
0	195	1.76344124279	2.4279e-07
0	198	1.789351317892	3.17892e-07
0	201	1.797914966382	-3.3618e-08
0	204	1.798065703269	-2.96731e-07
0	207	1.832267036382	3.6382e-08
0	210	1.846486768499	-2.31501e-07
0	213	1.852940759063	-2.40937e-07
0	216	1.859219353041	3.53041e-07
0	219	1.868454623269	-3.76731e-07
0	222	1.914462052286	5.2286e-08
0	225	1.94412316773	1.6773e-07
0	228	1.957032101788	1.01788e-07
0	231	1.966035323031	3.23031e-07
0	234	2.000466343574	3.43574e-07
0	237	2.005247761635	-2.38365e-07
0	240	2.017985207215	2.07215e-07
0	243	2.018538200948	2.00948e-07
0	246	2.025326383533	3.83533e-07
0	249	2.049856475182	4.75182e-07
0	252	2.064693047013	4.7013e-08
0	255	2.0728804674	4.674e-07
0	258	2.087199984397	-1.5603e-08
0	261	2.107046102173	1.02173e-07
0	264	2.11824692348	-7.652e-08
0	267	2.132699795859	-2.04141e-07
0	270	2.144860574836	-4.25164e-07
0	273	2.186212141765	1.41765e-07
0	276	2.190489305603	3.05603e-07
0	279	2.244861052046	5.2046e-08
0	282	2.308809941588	-5.8412e-08
0	285	2.311795220384	2.20384e-07
0	288	2.340646985127	-1.4873e-08
0	291	2.353682326572	3.26572e-07
0	294	2.434339042613	4.2613e-08
0	297	2.478474038746	3.8746e-08
0	300	2.507370688627	-3.11373e-07
0	303	2.512347733136	-2.66864e-07
0	306	2.522289308067	3.08067e-07
0	309	2.560661784327	-2.15673e-07
0	312	2.573316587647	-4.12353e-07
0	315	2.58682121667	2.1667e-07
0	318	2.596745308023	2.096745308023
0	321	2.606043517869	-4.82131e-07
0	324	2.607573023765	2.3765e-08
0	327	2.613630589051	-4.10949e-07
0	330	2.619977568183	-4.31817e-07
0	333	2.628588712122	-2.87878e-07
0	336	2.64615885499	-1.4501e-07
0	339	2.658161438816	4.38816e-07
0	342	2.665124351951	3.51951e-07
0	345	2.719017840596	-1.59404e-07
0	348	2.832869486371	4.86371e-07
0	351	2.841101992084	-7.916e-09
0	354	2.879582776735	-2.23265e-07
0	357	2.886153626954	-3.73046e-07
0	360	2.888121719984	-2.80016e-07
0	363	2.890877190931	1.90931e-07
0	366	2.892181766219	-2.33781e-07
0	369	2.893349166448	1.66448e-07
0	372	2.906538438611	4.38611e-07
0	375	2.909763023676	2.3676e-08
0	378	2.940327518758	-4.81242e-07
0	381	2.959070990048	-9.952e-09
0	384	2.96745402487	2.487e-08
0	387	2.973828840023	-1.59977e-07
0	390	2.98311304436	4.436e-08
0	393	2.990452267043	2.67043e-07
0	396	2.9966512396	2.396e-07
0	399	3.022798582865	-4.17135e-07
0	402	3.058098069019	6.9019e-08
0	405	3.102242474957	4.74957e-07
0	408	3.106517907046	-9.2954e-08
0	411	3.136185948085	-5.1915e-08
0	414	3.145660662651	-3.37349e-07
0	417	3.149289550352	-4.49648e-07
0	420	3.155197568983	-4.31017e-07
0	423	3.159406179562	1.79562e-07
0	426	3.183830672781	-3.27219e-07
0	429	3.255587821221	-1.78779e-07
0	432	3.260758891888	-1.08112e-07
0	435	3.263106461614	4.61614e-07
0	438	3.31802496193	-3.807e-08
0	441	3.326523720054	-2.79946e-07
0	444	3.332468984835	-1.5165e-08
0	447	3.413456617342	-3.82658e-07
0	450	3.475920055247	5.5247e-08
0	453	3.498131421394	4.21394e-07
0	456	3.500742422603	4.22603e-07
0	459	3.550159672183	-3.27817e-07
0	462	3.554720100807	1.00807e-07
0	465	3.557971941446	-5.8554e-08
0	468	3.563271627855	-3.72145e-07
0	471	3.563783388445	3.88445e-07
0	474	3.567508349288	3.49288e-07
0	477	3.592383049522	4.9522e-08
0	480	3.606361484807	4.84807e-07
0	483	3.637789530215	-4.69785e-07
0	486	3.645125689916	-3.10084e-07
0	489	3.665524506569	-4.93431e-07
0	492	3.721818912728	-8.7272e-08
0	495	3.751458245004	2.45004e-07
0	498	3.818606677559	-3.22441e-07
0	501	3.833510869788	-1.30212e-07
0	504	3.863523546886	-4.53114e-07
0	507	3.873858357594	3.57594e-07
0	510	3.88556838599	3.8599e-07
0	513	3.888887726749	-2.73251e-07
0	516	3.896384083154	8.3154e-08
0	519	3.919958604639	-3.95361e-07
0	522	3.931158124236	1.24236e-07
0	525	3.933080428467	4.28467e-07
0	528	3.935836345935	3.45935e-07
0	531	3.953103971621	-2.8379e-08
0	534	3.957455367362	3.67362e-07
0	537	3.959451632061	-3.67939e-07
0	540	3.966496049984	4.9984e-08
0	543	3.97101683435	-1.6565e-07
0	546	4.053653128212	1.28212e-07
0	549	4.087500914186	-8.5814e-08
0	552	4.089143154724	1.54724e-07
0	555	4.092216699942	-3.00058e-07
0	558	4.101074761804	-2.38196e-07
0	561	4.142756866943	-1.33057e-07
0	564	4.149922425906	4.25906e-07
0	567	4.167688424839	4.24839e-07
0	570	4.198087041406	4.1406e-08
0	573	4.2063510885	8.85e-08
0	576	4.259671078854	7.8854e-08
0	579	4.26061914647	1.4647e-07
0	582	4.279258164531	1.64531e-07
0	585	4.284356207168	2.07168e-07
0	588	4.295402726531	-2.73469e-07
0	591	4.338897872996	-1.27004e-07
0	594	4.375259411102	4.11102e-07
0	597	4.47695051455	-4.8545e-07
0	600	4.489787063142	6.3142e-08
0	603	4.515733130136	1.30136e-07
0	606	4.527675991552	-8.448e-09
0	609	4.547499301378	3.01378e-07
0	612	4.55008878205	-2.1795e-07
0	615	4.553733052965	5.2965e-08
0	618	4.569578169705	1.69705e-07
0	621	4.587304343795	3.43795e-07
0	624	4.609692089958	8.9958e-08
0	627	4.613538964093	-3.5907e-08
0	630	4.618847198225	1.98225e-07
0	633	4.631755267455	2.67455e-07
0	636	4.646458576807	-4.23193e-07
0	639	4.652100180556	1.80556e-07
0	642	4.664980192203	1.92203e-07
0	645	4.835149973166	-2.6834e-08
0	648	4.841643432016	4.32016e-07
0	651	4.843105940102	-5.9898e-08
0	654	4.851927784365	-2.15635e-07
0	657	4.874498296993	2.96993e-07
0	660	4.880048905733	-9.4267e-08
0	663	4.896476280689	2.80689e-07
0	666	4.917027520482	-4.79518e-07
0	669	4.923167664605	-3.35395e-07
0	672	4.96114227362	2.7362e-07
0	675	4.9754132309	2.309e-07
0	678	4.981140065006	6.5006e-08
0	681	5.002741699991	-3.00009e-07
0	684	5.01698610438	1.0438e-07
0	687	5.027559132035	1.32035e-07
0	690	5.031363024097	2.4097e-08
0	693	5.03626679969	-2.0031e-07
0	696	5.040999111719	1.11719e-07
0	699	5.096745308023	4.596745308023
0	702	5.100217625731	-3.74269e-07
0	705	5.112213550508	-4.49492e-07
0	708	5.157213165519	1.65519e-07
0	711	5.161008338118	3.38118e-07
0	714	5.162350758119	-2.41881e-07
0	717	5.165541658365	-3.41635e-07
0	720	5.168417929998	-7.0002e-08
0	723	5.168640871392	-1.28608e-07
0	726	5.215932644159	-3.55841e-07
0	729	5.233518439392	4.39392e-07
0	732	5.234746007575	7.575e-09
0	735	5.239121877308	-1.22692e-07
0	738	5.276223301795	3.01795e-07
0	741	5.300523270993	2.70993e-07
0	744	5.368007932696	-6.7304e-08
0	747	5.382652335195	3.35195e-07
0	750	5.399067143724	1.43724e-07
0	753	5.44954930963	3.0963e-07
0	756	5.450113498885	4.98885e-07
0	759	5.470229465747	4.65747e-07
0	762	5.470544981537	-1.8463e-08
0	765	5.488157422887	4.22887e-07
0	768	5.54471536777	3.6777e-07
0	771	5.546338804951	-1.95049e-07
0	774	5.550812877387	-1.22613e-07
0	777	5.550996272918	2.72918e-07
0	780	5.560244855191	-1.44809e-07
0	783	5.579604998277	-1.723e-09
0	786	5.608851341764	3.41764e-07
0	789	5.621819031657	3.1657e-08
0	792	5.721938576782	-4.23218e-07
0	795	5.722456647038	-3.52962e-07
0	798	5.778134849342	-1.50658e-07
0	801	5.78532573497	-2.6503e-07
0	804	5.800226686569	-3.13431e-07
0	807	5.806695358269	3.58269e-07
0	810	5.847607667186	-3.32814e-07
0	813	5.86878026868	2.6868e-07
0	816	5.906375644449	-3.55551e-07
0	819	5.910182136389	1.36389e-07
0	822	5.912515317275	3.17275e-07
0	825	5.916229846515	-1.53485e-07
0	828	5.973338198289	1.98289e-07
0	831	5.973982782056	-2.17944e-07
0	834	5.990969244717	2.44717e-07
0	837	5.99219028866	2.8866e-07
0	840	5.998381956946	-4.3054e-08
0	843	6.018068431411	4.31411e-07
0	846	6.0325109391	-6.09e-08
0	849	6.056071545091	-4.54909e-07
0	852	6.064929085132	8.5132e-08
0	855	6.073115172144	1.72144e-07
0	858	6.07893850943	-4.9057e-07
0	861	6.105831242633	2.42633e-07
0	864	6.182472814061	-1.85939e-07
0	867	6.196375727653	-2.72347e-07
0	870	6.209611263173	2.63173e-07
0	873	6.216768938862	-6.1138e-08
0	876	6.228311868385	-1.31615e-07
0	879	6.231242344157	3.44157e-07
0	882	6.246536746063	-2.53937e-07
0	885	6.258172906004	-9.3996e-08
0	888	6.294523110427	1.10427e-07
0	891	6.313922738283	-2.61717e-07
0	894	6.353203316825	3.16825e-07
0	897	6.363079661318	-3.38682e-07
0	900	6.367626000708	7.08e-10
0	903	6.373451518779	-4.81221e-07
0	906	6.376662877109	-1.22891e-07
0	909	6.391826875834	-1.24166e-07
0	912	6.439992643754	-3.56246e-07
0	915	6.470689400052	4.00052e-07
0	918	6.51614235472	3.5472e-07
0	921	6.521984075802	7.5802e-08
0	924	6.524455940956	-5.9044e-08
0	927	6.539893107255	1.07255e-07
0	930	6.568769275675	2.75675e-07
0	933	6.575164568471	-4.31529e-07
0	936	6.630638814205	-1.85795e-07
0	939	6.633127376298	3.76298e-07
0	942	6.643498073378	7.3378e-08
0	945	6.689122760576	-2.39424e-07
0	948	6.694104708593	-2.91407e-07
0	951	6.757165001287	1.287e-09
0	954	6.774853919072	-8.0928e-08
0	957	6.787213090016	9.0016e-08
0	960	6.796700702701	-2.97299e-07
0	963	6.816746361414	3.61414e-07
0	966	6.833912096452	9.6452e-08
0	969	6.864252930273	-6.9727e-08
0	972	6.898993137338	1.37338e-07
0	975	6.949054593873	-4.06127e-07
0	978	6.960731965117	-3.4883e-08
0	981	6.981628935365	-6.4635e-08
0	984	6.997266490571	4.90571e-07
0	987	7.009625128937	1.28937e-07
0	990	7.020348476338	4.76338e-07
0	993	7.021432871045	-1.28955e-07
0	996	7.043175710459	-2.89541e-07
0	999	7.045600648597	-3.51403e-07
0	1002	7.05453202799	2.799e-08
0	1005	7.11646528123	2.8123e-07
0	1008	7.123242931952	-6.8048e-08
0	1011	7.167546273163	2.73163e-07
0	1014	7.180456710654	-2.89346e-07
0	1017	7.19338648091	4.8091e-07
0	1020	7.198526115716	1.15716e-07
0	1023	7.203008948593	-5.1407e-08
0	1026	7.222909546504	-4.53496e-07
0	1029	7.229835364922	3.64922e-07
0	1032	7.251683396521	3.96521e-07
0	1035	7.265541344881	3.44881e-07
0	1038	7.282078534645	-4.65355e-07
0	1041	7.286087135086	1.35086e-07
0	1044	7.293821257027	2.57027e-07
0	1047	7.299869870394	-1.29606e-07
0	1050	7.300197608537	-3.91463e-07
0	1053	7.357671436621	4.36621e-07
0	1056	7.360993017116	1.7116e-08
0	1059	7.41825711201	1.1201e-07
0	1062	7.424144260353	2.60353e-07
0	1065	7.445297611038	-3.88962e-07
0	1068	7.495510226163	2.26163e-07
0	1071	7.52379792626	-7.374e-08
0	1074	7.525011690473	-3.09527e-07
0	1077	7.571562955483	-4.4517e-08
0	1080	7.596745308023	7.096745308023
0	1083	7.597013556305	-4.43695e-07
0	1086	7.609585507819	-4.92181e-07
0	1089	7.639789704931	-2.95069e-07
0	1092	7.660118795185	-2.04815e-07
0	1095	7.66913282713	-1.7287e-07
0	1098	7.717926224973	2.24973e-07
0	1101	7.724550709176	-2.90824e-07
0	1104	7.743779508305	-4.91695e-07
0	1107	7.779592713295	-2.86705e-07
0	1110	7.823001677076	-3.22924e-07
0	1113	7.834330481524	4.81524e-07
0	1116	7.846421822531	-1.77469e-07
0	1119	7.887907325568	3.25568e-07
0	1122	7.898956163553	1.63553e-07
0	1125	7.903649000265	2.65e-10
0	1128	7.906085186126	1.86126e-07
0	1131	7.92538876105	-2.3895e-07
0	1134	7.942598557427	-4.42573e-07
0	1137	7.974959617993	-3.82007e-07
0	1140	7.976736729546	-2.70454e-07
0	1143	7.996374701337	-2.98663e-07
0	1146	8.003881382476	3.82476e-07
0	1149	8.053540210519	2.10519e-07
0	1152	8.086923541128	-4.58872e-07
0	1155	8.08729976574	-2.3426e-07
0	1158	8.099747456377	4.56377e-07
0	1161	8.116555996426	-3.574e-09
0	1164	8.13126580962	-1.9038e-07
0	1167	8.137108460069	4.60069e-07
0	1170	8.138694585395	-4.14605e-07
0	1173	8.15563648953	4.8953e-07
0	1176	8.200576382084	3.82084e-07
0	1179	8.235945809959	-1.90041e-07
0	1182	8.255471608649	-3.91351e-07
0	1185	8.288147595571	-4.04429e-07
0	1188	8.292530046822	4.6822e-08
0	1191	8.296133376333	3.76333e-07
0	1194	8.336863715948	-2.84052e-07
0	1197	8.340034528729	-4.71271e-07
0	1200	8.340650456586	4.56586e-07
0	1203	8.361236308142	3.08142e-07
0	1206	8.377164180204	1.80204e-07
0	1209	8.394589627488	-3.72512e-07
0	1212	8.42536162599	-3.7401e-07
0	1215	8.425944394618	3.94618e-07
0	1218	8.42936510481	1.0481e-07
0	1221	8.439274382732	3.82732e-07
0	1224	8.53825374199	-2.5801e-07
0	1227	8.556757905428	-9.4572e-08
0	1230	8.578805137658	1.37658e-07
0	1233	8.579858300416	3.00416e-07
0	1236	8.580580805568	-1.94432e-07
0	1239	8.652464926847	-7.3153e-08
0	1242	8.667955317487	3.17487e-07
0	1245	8.704169005761	5.761e-09
0	1248	8.744445200824	2.00824e-07
0	1251	8.76006767708	-3.2292e-07
0	1254	8.800306111901	1.11901e-07
0	1257	8.84805932208	3.2208e-07
0	1260	8.851667682546	-3.17454e-07
0	1263	8.856467110476	1.10476e-07
0	1266	8.867724142596	1.42596e-07
0	1269	8.884945596473	-4.03527e-07
0	1272	8.89045656696	-4.3304e-07
0	1275	8.919562737923	-2.62077e-07
0	1278	8.921240985906	-1.4094e-08
0	1281	8.923390996595	-3.405e-09
0	1284	8.926380019869	1.9869e-08
0	1287	8.938075200236	2.00236e-07
0	1290	8.944285622146	-3.77854e-07
0	1293	8.966852831142	-1.68858e-07
0	1296	8.976130501226	-4.98774e-07
0	1299	9.032182773016	-2.26984e-07
0	1302	9.063738299255	2.99255e-07
0	1305	9.08635632475	3.2475e-07
0	1308	9.087437807722	-1.92278e-07
0	1311	9.115428543743	-4.56257e-07
0	1314	9.127016518824	-4.81176e-07
0	1317	9.145765809017	-1.90983e-07
0	1320	9.150936566852	-4.33148e-07
0	1323	9.171952991839	-8.161e-09
0	1326	9.216662797564	-2.02436e-07
0	1329	9.220640861942	-1.38058e-07
0	1332	9.229306331137	3.31137e-07
0	1335	9.269862115522	1.15522e-07
0	1338	9.30257805856	5.856e-08
0	1341	9.316027107509	1.07509e-07
0	1344	9.318703645236	-3.54764e-07
0	1347	9.33119973219	-2.6781e-07
0	1350	9.342269416294	4.16294e-07
0	1353	9.343930974742	-2.5258e-08
0	1356	9.383450626536	-3.73464e-07
0	1359	9.39195051333	-4.8667e-07
0	1362	9.400717361831	3.61831e-07
0	1365	9.412961124489	1.24489e-07
0	1368	9.498597674351	-3.25649e-07
0	1371	9.517237762408	-2.37592e-07
0	1374	9.524164978043	-2.1957e-08
0	1377	9.589456343417	3.43417e-07
0	1380	9.623795809085	-1.90915e-07
0	1383	9.632882317715	3.17715e-07
0	1386	9.652529158211	1.58211e-07
0	1389	9.668289805948	-1.94052e-07
0	1392	9.695066384877	3.84877e-07
0	1395	9.726217082749	8.2749e-08
0	1398	9.758140937146	-6.2854e-08
0	1401	9.765416288608	2.88608e-07
0	1404	9.779348923686	-7.6314e-08
0	1407	9.793781372207	3.72207e-07
0	1410	9.797821435518	4.35518e-07
0	1413	9.825345131662	1.31662e-07
0	1416	9.829027426617	4.26617e-07
0	1419	9.844593769219	-2.30781e-07
0	1422	9.850976251113	2.51113e-07
0	1425	9.867841446258	4.46258e-07
0	1428	9.871376958861	-4.1139e-08
0	1431	9.881735902884	-9.7116e-08
0	1434	9.884384324633	3.24633e-07
0	1437	9.915455269255	2.69255e-07
0	1440	9.951881481706	4.81706e-07

