version 3
run Attack20_record-0-20250829-01:43:59-80319
attr configname Attack20_record
attr datetime 20250829-01:43:59
attr datetimef 20250829-014359
attr experiment Attack20_record
attr inifile run_record.ini
attr iterationvars ""
attr iterationvarsd ""
attr iterationvarsf ""
attr measurement ""
attr network ned.LightIoTNetwork
attr processid 80319
attr repetition 0
attr replication #0
attr resultdir results
attr runnumber 0
attr seedset 2
config output-scalar-file results/Attack20_record-rep2.sca
config output-vector-file results/Attack20_record-rep2.vec
config seed-set 2
config network ned.LightIoTNetwork
config output-scalar-file results/Attack20_record-0.sca
config output-vector-file results/Attack20_record-0.vec
config **.scalar-recording true
config **.vector-recording true
config **.result-recording-modes all
config LightIoTNetwork.numSensorNodes 20
config **.fakeNode.enabled true
config **.fakeNode.attackMode 1
config **.fakeNode.replayInterval 2.5s
config **.gateway.securityEnabled true
config **.gateway.hmacWindow 1s
config **.gateway.procDelay 1ms
config **.gateway.costForward_mJ 5
config **.gateway.costVerify_mJ 5
config **.gateway.batteryInit_mJ 5000
config sim-time-limit 10s
config description "Secure Mode Simulation (includes all scenarios)"
config network ned.LightIoTNetwork
config ned-path .
config sim-time-limit 10s
config record-eventlog true
config cmdenv-express-mode false
config network ned.LightIoTNetwork
config sim-time-limit 10s
config output-scalar-file results/secure_output.sca
config output-vector-file results/secure_output.vec
config network LightIoTNetwork
config sim-time-limit 10s
config output-scalar-file results/nosecure_output.sca
config output-vector-file results/nosecure_output.vec
config network LightIoTNetwork
config sim-time-limit 10s
config output-scalar-file results/attack_output.sca
config output-vector-file results/attack_output.vec
config output-scalar-file results/Attack20_record-0.sca
config output-vector-file results/Attack20_record-0.vec
config **.scalar-recording true
config **.vector-recording true
config **.statistic-recording true
config **.result-recording-modes all
config rng-class cMersenneTwister
config num-rngs 1
config seed-set 123

vector 0 LightIoTNetwork.cloud EndToEndDelay_s ETV
0	3	0.526926227914	0.001000227914
0	6	0.620950543856	0.000999543856
0	9	0.655426675523	0.000999675523
0	12	0.686082081473	0.001000081473
0	15	0.705648636049	0.000999636049
0	18	0.767827276442	0.001000276442
0	21	0.800654677277	0.000999677277
0	24	0.82153643628	0.00100043628
0	27	0.831334820319	0.000999820319
0	30	0.921367801562	0.000999801562
0	35	0.936322393198	0.001000393198
0	36	0.936994902626	0.000999902626
0	41	0.985749096213	0.001000096213
0	42	0.98617591483	0.00099991483
0	45	1.05066247594	0.00100047594
0	48	1.120270970346	0.000999970346
0	51	1.13373773063	0.00099973063
0	54	1.199862689314	0.000999689314
0	57	1.432540863588	0.000999863588
0	60	1.448730610846	0.000999610846
0	63	1.590571572328	0.000999572328
0	66	1.612998069939	0.001000069939
0	69	1.626778961926	0.000999961926
0	72	1.69203187453	0.00099987453
0	75	1.705360869574	0.000999869574
0	78	1.758424408849	0.001000408849
0	81	1.770542900007	0.000999900007
0	84	1.818014073068	0.001000073068
0	87	1.875285666505	0.000999666505
0	90	1.888022009492	0.001000009492
0	93	1.978434831066	0.000999831066
0	96	1.98502328291	0.00100028291
0	99	1.994990559504	0.000999559504
0	102	2.007789960806	0.000999960806
0	105	2.03212404244	0.00100004244
0	108	2.069134655385	0.000999655385
0	111	2.115791783504	0.000999783504
0	114	2.189583268597	0.001000268597
0	117	2.449779828614	0.000999828614
0	122	2.526055370667	0.001000370667
0	123	2.526467345118	0.001000345118
0	126	2.549975244304	0.001000244304
0	129	2.584352725906	0.000999725906
0	134	2.628599534114	0.000999534114
0	139	2.677656340761	0.001000340761
0	140	2.677730593154	0.000999593154
0	143	2.706888307467	0.001000307467
0	146	2.743446067417	0.001000067417
0	149	2.874143620091	0.000999620091
0	152	2.907371071097	0.001000071097
0	155	2.929179097735	0.001000097735
0	158	2.930225683538	0.000999683538
0	161	2.939357592933	0.000999592933
0	164	2.991587857133	0.000999857133
0	167	3.013195896637	0.000999896637
0	170	3.085622277738	0.001000277738
0	173	3.131253397533	0.001000397533
0	176	3.159548525674	0.000999525674
0	179	3.383344491501	0.001000491501
0	182	3.490323889697	0.000999889697
0	185	3.499961618915	0.000999618915
0	188	3.519612867688	0.000999867688
0	191	3.57808744239	0.00100044239
0	194	3.656680879393	0.000999879393
0	197	3.674344559502	0.000999559502
0	200	3.708509577181	0.000999577181
0	203	3.744493410805	0.001000410805
0	206	3.765506256068	0.001000256068
0	209	3.884749601199	0.000999601199
0	212	3.906755979196	0.000999979196
0	215	3.93709285648	0.00099985648
0	218	3.951785036479	0.001000036479
0	221	3.988953174067	0.001000174067
0	224	4.007588693708	0.000999693708
0	227	4.018081998381	0.000999998381
0	230	4.037527992319	0.000999992319
0	233	4.060966353606	0.001000353606
0	236	4.199698994377	0.000999994377
0	239	4.453800698113	0.000999698113
0	242	4.501866794865	0.000999794865
0	245	4.519614540483	0.000999540483
0	248	4.521541426353	0.001000426353
0	251	4.583234106166	0.001000106166
0	254	4.676832308456	0.001000308456
0	257	4.707552907033	0.000999907033
0	260	4.734584891214	0.000999891214
0	263	4.772997817885	0.000999817885
0	266	4.778935081581	0.001000081581
0	269	4.836496235407	0.001000235407
0	272	4.892265172046	0.001000172046
0	275	4.93913448893	0.00100048893
0	278	4.95968824874	0.00100024874
0	281	4.998927913489	0.000999913489
0	284	5.011650496696	0.001000496696
0	287	5.015801004296	0.001000004296
0	290	5.044648827634	0.000999827634
0	293	5.062900531314	0.000999531314
0	298	5.290447438856	0.001000438856
0	301	5.437960410513	0.001000410513
0	304	5.510708425961	0.001000425961
0	307	5.513440775894	0.000999775894
0	310	5.582442223863	0.001000223863
0	313	5.650100787611	0.000999787611
0	316	5.672852190839	0.001000190839
0	319	5.760190091212	0.001000091212
0	322	5.772129834047	0.000999834047
0	325	5.776025642244	0.000999642244
0	328	5.780695866304	0.000999866304
0	331	5.797705645277	0.000999645277
0	334	5.80475499162	0.00099999162
0	337	5.909123696129	0.000999696129
0	340	5.925079370358	0.001000370358
0	343	5.985235467483	0.001000467483
0	346	5.98846077153	0.00099977153
0	349	6.09346175359	0.00099975359
0	352	6.143419229726	0.001000229726
0	355	6.151139191886	0.001000191886
0	358	6.384563501806	0.000999501806
0	361	6.438562860502	0.000999860502
0	364	6.553849183279	0.001000183279
0	367	6.570760096073	0.001000096073
0	370	6.602805647557	0.000999647557
0	373	6.691409188018	0.001000188018
0	376	6.70597492319	0.00099992319
0	379	6.725844163423	0.001000163423
0	382	6.739300512778	0.000999512778
0	385	6.75639444224	0.00100044224
0	388	6.782910150685	0.001000150685
0	391	6.80956836727	0.00100036727
0	394	6.868088388232	0.001000388232
0	397	6.873698539541	0.000999539541
0	400	6.896404226425	0.001000226425
0	403	6.89759656454	0.00099956454
0	406	7.037621467258	0.001000467258
0	409	7.179987465752	0.001000465752
0	412	7.193382640065	0.000999640065
0	415	7.24004991811	0.00099991811
0	418	7.372834485372	0.001000485372
0	421	7.442049012728	0.001000012728
0	424	7.554649271094	0.001000271094
0	427	7.567513910937	0.000999910937
0	432	7.647654415922	0.001000415922
0	435	7.65792387349	0.00099987349
0	438	7.702135957193	0.000999957193
0	441	7.716678489581	0.001000489581
0	444	7.735181100503	0.001000100503
0	447	7.740572663093	0.000999663093
0	450	7.774807423747	0.001000423747
0	453	7.849313530675	0.000999530675
0	456	7.872246339752	0.001000339752
0	459	7.894877716969	0.000999716969
0	462	7.915437800412	0.000999800412
0	465	7.940224934858	0.000999934858
0	468	7.94329626502	0.00100026502
0	471	8.151138190528	0.001000190528
0	474	8.182636566528	0.000999566528
0	477	8.252863628765	0.000999628765
0	480	8.326712245609	0.001000245609
0	483	8.414454494067	0.001000494067
0	486	8.552764604961	0.000999604961
0	489	8.571186248888	0.001000248888
0	492	8.630589051754	0.001000051754
0	495	8.643173968675	0.000999968675
0	498	8.712685785978	0.000999785978
0	501	8.717319872998	0.000999872998
0	504	8.734576361601	0.001000361601
0	507	8.774222182783	0.001000182783
0	510	8.794070314825	0.001000314825
0	513	8.855227506415	0.000999506415
0	516	8.88561218085	0.00100018085
0	519	8.922574222996	0.001000222996
0	522	8.932208645041	0.000999645041
0	525	8.953491845983	0.000999845983
0	528	8.960151318112	0.001000318112
0	531	9.177306721754	0.000999721754
0	534	9.22124594983	0.00099994983
0	537	9.24926748874	0.00100048874
0	540	9.277218704692	0.000999704692
0	543	9.390793081768	0.001000081768
0	546	9.515416309539	0.001000309539
0	549	9.538948593125	0.000999593125
0	552	9.663678164012	0.001000164012
0	555	9.672576813842	0.000999813842
0	558	9.736997464415	0.001000464415
0	561	9.760365736927	0.000999736927
0	564	9.766078838355	0.000999838355
0	567	9.801104699236	0.000999699236
0	570	9.808889007358	0.001000007358
0	573	9.834912608632	0.000999608632
0	576	9.868962868231	0.000999868231
0	579	9.960977030988	0.001000030988
0	582	9.971991118626	0.001000118626
0	585	9.992447583029	0.000999583029
0	588	9.998414629069	0.000999629069

