version 3
run Attack50_record-0-20250829-01:44:00-80571
attr configname Attack50_record
attr datetime 20250829-01:44:00
attr datetimef 20250829-014400
attr experiment Attack50_record
attr inifile run_record.ini
attr iterationvars ""
attr iterationvarsd ""
attr iterationvarsf ""
attr measurement ""
attr network ned.LightIoTNetwork
attr processid 80571
attr repetition 0
attr replication #0
attr resultdir results
attr runnumber 0
attr seedset 2
config output-scalar-file results/Attack50_record-rep2.sca
config output-vector-file results/Attack50_record-rep2.vec
config seed-set 2
config network ned.LightIoTNetwork
config output-scalar-file results/Attack50_record-0.sca
config output-vector-file results/Attack50_record-0.vec
config **.scalar-recording true
config **.vector-recording true
config **.result-recording-modes all
config LightIoTNetwork.numSensorNodes 50
config **.gateway.securityEnabled true
config **.gateway.hmacWindow 3s
config **.gateway.procDelay 1ms
config **.gateway.costForward_mJ 5
config **.gateway.costVerify_mJ 5
config **.gateway.batteryInit_mJ 5000
config **.fakeNode.enabled true
config **.fakeNode.attackMode 1
config **.fakeNode.replayInterval 2.5s
config sim-time-limit 10s
config rng-class cMersenneTwister
config num-rngs 1
config seed-set 123
config description "Secure Mode Simulation (includes all scenarios)"
config network ned.LightIoTNetwork
config ned-path .
config sim-time-limit 10s
config record-eventlog true
config cmdenv-express-mode false
config network ned.LightIoTNetwork
config sim-time-limit 10s
config output-scalar-file results/secure_output.sca
config output-vector-file results/secure_output.vec
config network LightIoTNetwork
config sim-time-limit 10s
config output-scalar-file results/nosecure_output.sca
config output-vector-file results/nosecure_output.vec
config network LightIoTNetwork
config sim-time-limit 10s
config output-scalar-file results/attack_output.sca
config output-vector-file results/attack_output.vec
config output-scalar-file results/Attack50_record-0.sca
config output-vector-file results/Attack50_record-0.vec
config **.scalar-recording true
config **.vector-recording true
config **.statistic-recording true
config **.result-recording-modes all
config rng-class cMersenneTwister
config num-rngs 1
config seed-set 123

vector 0 LightIoTNetwork.cloud EndToEndDelay_s ETV
0	3	0.526926227914	0.001000227914
0	6	0.566286503639	0.000999503639
0	9	0.580645470949	0.001000470949
0	12	0.597530921524	0.000999921524
0	15	0.617193322698	0.001000322698
0	18	0.620950543856	0.000999543856
0	21	0.628159971744	0.000999971744
0	24	0.635579942329	0.000999942329
0	27	0.655426675523	0.000999675523
0	30	0.677984623773	0.000999623773
0	33	0.682727037299	0.001000037299
0	38	0.685439862845	0.000999862845
0	39	0.686082081473	0.001000081473
0	42	0.705648636049	0.000999636049
0	45	0.759498081472	0.001000081472
0	48	0.767827276442	0.001000276442
0	51	0.788868819898	0.000999819898
0	54	0.798018359881	0.001000359881
0	57	0.800654677277	0.000999677277
0	60	0.82153643628	0.00100043628
0	63	0.831334820319	0.000999820319
0	66	0.908307832502	0.000999832502
0	69	0.921367801562	0.000999801562
0	72	0.929122331155	0.001000331155
0	77	0.936322393198	0.001000393198
0	78	0.936994902626	0.000999902626
0	83	0.985749096213	0.001000096213
0	84	0.98617591483	0.00099991483
0	89	0.995236840401	0.000999840401
0	90	0.995289767928	0.000999767928
0	93	0.999561167624	0.001000167624
0	96	1.00624608884	0.00100008884
0	99	1.014578117825	0.001000117825
0	102	1.030142090352	0.001000090352
0	105	1.047207316453	0.001000316453
0	108	1.05066247594	0.00100047594
0	111	1.087796978954	0.000999978954
0	114	1.120270970346	0.000999970346
0	117	1.122133833192	0.000999833192
0	120	1.13373773063	0.00099973063
0	123	1.184025995037	0.000999995037
0	126	1.199862689314	0.000999689314
0	129	1.22075423093	0.00100023093
0	132	1.286335147521	0.001000147521
0	135	1.319226722069	0.000999722069
0	138	1.347561491257	0.001000491257
0	141	1.354975290898	0.001000290898
0	144	1.432540863588	0.000999863588
0	147	1.448730610846	0.000999610846
0	150	1.47063240765	0.00100040765
0	153	1.511488904267	0.000999904267
0	156	1.518920058453	0.001000058453
0	159	1.525012504378	0.000999504378
0	162	1.540079253981	0.001000253981
0	165	1.565011785108	0.000999785108
0	168	1.58899133841	0.00100033841
0	171	1.605545199406	0.001000199406
0	174	1.625788508238	0.000999508238
0	177	1.643621585773	0.000999585773
0	180	1.656221311096	0.001000311096
0	185	1.670691557996	0.000999557996
0	186	1.671542120794	0.001000120794
0	189	1.679816797957	0.000999797957
0	192	1.733729981328	0.000999981328
0	195	1.76444124279	0.00100024279
0	198	1.790351317892	0.001000317892
0	203	1.798914966382	0.000999966382
0	204	1.799065703269	0.000999703269
0	207	1.833267036382	0.001000036382
0	210	1.847486768499	0.000999768499
0	213	1.853940759063	0.000999759063
0	216	1.860219353041	0.001000353041
0	219	1.869454623269	0.000999623269
0	222	1.915462052286	0.001000052286
0	225	1.94512316773	0.00100016773
0	228	1.958032101788	0.001000101788
0	231	1.967035323031	0.001000323031
0	234	2.001466343574	0.001000343574
0	237	2.006247761635	0.000999761635
0	242	2.018985207215	0.001000207215
0	243	2.019538200948	0.001000200948
0	246	2.026326383533	0.001000383533
0	249	2.050856475182	0.001000475182
0	252	2.065693047013	0.001000047013
0	255	2.0738804674	0.0010004674
0	258	2.088199984397	0.000999984397
0	261	2.108046102173	0.001000102173
0	264	2.11924692348	0.00099992348
0	267	2.133699795859	0.000999795859
0	270	2.145860574836	0.000999574836
0	273	2.187212141765	0.001000141765
0	276	2.191489305603	0.001000305603
0	279	2.245861052046	0.001000052046
0	282	2.309809941588	0.000999941588
0	285	2.312795220384	0.001000220384
0	288	2.341646985127	0.000999985127
0	291	2.354682326572	0.001000326572
0	294	2.435339042613	0.001000042613
0	297	2.479474038746	0.001000038746
0	300	2.508370688627	0.000999688627
0	303	2.513347733136	0.000999733136
0	306	2.523289308067	0.001000308067
0	309	2.561661784327	0.000999784327
0	312	2.574316587647	0.000999587647
0	315	2.58782121667	0.00100021667
0	320	2.607043517869	0.000999517869
0	323	2.608573023765	0.001000023765
0	326	2.614630589051	0.000999589051
0	329	2.620977568183	0.000999568183
0	332	2.629588712122	0.000999712122
0	335	2.64715885499	0.00099985499
0	338	2.659161438816	0.001000438816
0	341	2.666124351951	0.001000351951
0	344	2.720017840596	0.000999840596
0	347	2.833869486371	0.001000486371
0	350	2.842101992084	0.000999992084
0	353	2.880582776735	0.000999776735
0	356	2.887153626954	0.000999626954
0	359	2.889121719984	0.000999719984
0	362	2.891877190931	0.001000190931
0	365	2.893181766219	0.000999766219
0	368	2.894349166448	0.001000166448
0	371	2.907538438611	0.001000438611
0	374	2.910763023676	0.001000023676
0	377	2.941327518758	0.000999518758
0	380	2.960070990048	0.000999990048
0	383	2.96845402487	0.00100002487
0	386	2.974828840023	0.000999840023
0	389	2.98411304436	0.00100004436
0	392	2.991452267043	0.001000267043
0	395	2.9976512396	0.0010002396
0	398	3.023798582865	0.000999582865
0	401	3.059098069019	0.001000069019
0	404	3.103242474957	0.001000474957
0	407	3.107517907046	0.000999907046
0	410	3.137185948085	0.000999948085
0	413	3.146660662651	0.000999662651
0	416	3.150289550352	0.000999550352
0	419	3.156197568983	0.000999568983
0	422	3.160406179562	0.001000179562
0	425	3.184830672781	0.000999672781
0	428	3.256587821221	0.000999821221
0	431	3.261758891888	0.000999891888
0	434	3.264106461614	0.001000461614
0	437	3.31902496193	0.00099996193
0	440	3.327523720054	0.000999720054
0	443	3.333468984835	0.000999984835
0	446	3.414456617342	0.000999617342
0	449	3.476920055247	0.001000055247
0	452	3.499131421394	0.001000421394
0	455	3.501742422603	0.001000422603
0	458	3.551159672183	0.000999672183
0	461	3.555720100807	0.001000100807
0	464	3.558971941446	0.000999941446
0	469	3.564271627855	0.000999627855
0	470	3.564783388445	0.001000388445
0	473	3.568508349288	0.001000349288
0	476	3.593383049522	0.001000049522
0	479	3.607361484807	0.001000484807
0	482	3.638789530215	0.000999530215
0	485	3.646125689916	0.000999689916
0	488	3.666524506569	0.000999506569
0	491	3.722818912728	0.000999912728
0	494	3.752458245004	0.001000245004
0	497	3.819606677559	0.000999677559
0	500	3.834510869788	0.000999869788
0	503	3.864523546886	0.000999546886
0	506	3.874858357594	0.001000357594
0	509	3.88656838599	0.00100038599
0	512	3.889887726749	0.000999726749
0	515	3.897384083154	0.001000083154
0	518	3.920958604639	0.000999604639
0	521	3.932158124236	0.001000124236
0	524	3.934080428467	0.001000428467
0	527	3.936836345935	0.001000345935
0	530	3.954103971621	0.000999971621
0	533	3.958455367362	0.001000367362
0	536	3.960451632061	0.000999632061
0	539	3.967496049984	0.001000049984
0	542	3.97201683435	0.00099983435
0	545	4.054653128212	0.001000128212
0	548	4.088500914186	0.000999914186
0	551	4.090143154724	0.001000154724
0	554	4.093216699942	0.000999699942
0	557	4.102074761804	0.000999761804
0	560	4.143756866943	0.000999866943
0	563	4.150922425906	0.001000425906
0	566	4.168688424839	0.001000424839
0	569	4.199087041406	0.001000041406
0	572	4.2073510885	0.0010000885
0	577	4.260671078854	0.001000078854
0	578	4.26161914647	0.00100014647
0	581	4.280258164531	0.001000164531
0	584	4.285356207168	0.001000207168
0	587	4.296402726531	0.000999726531
0	590	4.339897872996	0.000999872996
0	593	4.376259411102	0.001000411102
0	596	4.47795051455	0.00099951455
0	599	4.490787063142	0.001000063142
0	602	4.516733130136	0.001000130136
0	605	4.528675991552	0.000999991552
0	608	4.548499301378	0.001000301378
0	611	4.55108878205	0.00099978205
0	614	4.554733052965	0.001000052965
0	617	4.570578169705	0.001000169705
0	620	4.588304343795	0.001000343795
0	623	4.610692089958	0.001000089958
0	626	4.614538964093	0.000999964093
0	629	4.619847198225	0.001000198225
0	632	4.632755267455	0.001000267455
0	635	4.647458576807	0.000999576807
0	638	4.653100180556	0.001000180556
0	641	4.665980192203	0.001000192203
0	644	4.836149973166	0.000999973166
0	647	4.842643432016	0.001000432016
0	650	4.844105940102	0.000999940102
0	653	4.852927784365	0.000999784365
0	656	4.875498296993	0.001000296993
0	659	4.881048905733	0.000999905733
0	662	4.897476280689	0.001000280689
0	665	4.918027520482	0.000999520482
0	668	4.924167664605	0.000999664605
0	671	4.96214227362	0.00100027362
0	674	4.9764132309	0.0010002309
0	677	4.982140065006	0.001000065006
0	680	5.003741699991	0.000999699991
0	683	5.01798610438	0.00100010438
0	686	5.028559132035	0.001000132035
0	689	5.032363024097	0.001000024097
0	692	5.03726679969	0.00099979969
0	695	5.041999111719	0.001000111719
0	700	5.101217625731	0.000999625731
0	703	5.113213550508	0.000999550508
0	706	5.158213165519	0.001000165519
0	709	5.162008338118	0.001000338118
0	712	5.163350758119	0.000999758119
0	715	5.166541658365	0.000999658365
0	720	5.169417929998	0.000999929998
0	721	5.169640871392	0.000999871392
0	724	5.216932644159	0.000999644159
0	727	5.234518439392	0.001000439392
0	730	5.235746007575	0.001000007575
0	733	5.240121877308	0.000999877308
0	736	5.277223301795	0.001000301795
0	739	5.301523270993	0.001000270993
0	742	5.369007932696	0.000999932696
0	745	5.383652335195	0.001000335195
0	748	5.400067143724	0.001000143724
0	753	5.45054930963	0.00100030963
0	754	5.451113498885	0.001000498885
0	759	5.471229465747	0.001000465747
0	760	5.471544981537	0.000999981537
0	763	5.489157422887	0.001000422887
0	766	5.54571536777	0.00100036777
0	769	5.547338804951	0.000999804951
0	774	5.551812877387	0.000999877387
0	775	5.551996272918	0.001000272918
0	778	5.561244855191	0.000999855191
0	781	5.580604998277	0.000999998277
0	784	5.609851341764	0.001000341764
0	787	5.622819031657	0.001000031657
0	792	5.722938576782	0.000999576782
0	793	5.723456647038	0.000999647038
0	796	5.779134849342	0.000999849342
0	799	5.78632573497	0.00099973497
0	802	5.801226686569	0.000999686569
0	805	5.807695358269	0.001000358269
0	808	5.848607667186	0.000999667186
0	811	5.86978026868	0.00100026868
0	814	5.907375644449	0.000999644449
0	817	5.911182136389	0.001000136389
0	820	5.913515317275	0.001000317275
0	823	5.917229846515	0.000999846515
0	828	5.974338198289	0.001000198289
0	829	5.974982782056	0.000999782056
0	832	5.991969244717	0.001000244717
0	835	5.99319028866	0.00100028866
0	838	5.999381956946	0.000999956946
0	841	6.019068431411	0.001000431411
0	844	6.0335109391	0.0009999391
0	847	6.057071545091	0.000999545091
0	850	6.065929085132	0.001000085132
0	853	6.074115172144	0.001000172144
0	856	6.07993850943	0.00099950943
0	859	6.106831242633	0.001000242633
0	862	6.183472814061	0.000999814061
0	865	6.197375727653	0.000999727653
0	868	6.210611263173	0.001000263173
0	871	6.217768938862	0.000999938862
0	874	6.229311868385	0.000999868385
0	877	6.232242344157	0.001000344157
0	880	6.247536746063	0.000999746063
0	883	6.259172906004	0.000999906004
0	886	6.295523110427	0.001000110427
0	889	6.314922738283	0.000999738283
0	892	6.354203316825	0.001000316825
0	895	6.364079661318	0.000999661318
0	898	6.368626000708	0.001000000708
0	901	6.374451518779	0.000999518779
0	904	6.377662877109	0.000999877109
0	907	6.392826875834	0.000999875834
0	910	6.440992643754	0.000999643754
0	913	6.471689400052	0.001000400052
0	916	6.51714235472	0.00100035472
0	919	6.522984075802	0.001000075802
0	922	6.525455940956	0.000999940956
0	925	6.540893107255	0.001000107255
0	928	6.569769275675	0.001000275675
0	931	6.576164568471	0.000999568471
0	934	6.631638814205	0.000999814205
0	937	6.634127376298	0.001000376298
0	940	6.644498073378	0.001000073378
0	943	6.690122760576	0.000999760576
0	946	6.695104708593	0.000999708593
0	949	6.758165001287	0.001000001287
0	952	6.775853919072	0.000999919072
0	955	6.788213090016	0.001000090016
0	958	6.797700702701	0.000999702701
0	961	6.817746361414	0.001000361414
0	964	6.834912096452	0.001000096452
0	967	6.865252930273	0.000999930273
0	970	6.899993137338	0.001000137338
0	973	6.950054593873	0.000999593873
0	976	6.961731965117	0.000999965117
0	979	6.982628935365	0.000999935365
0	982	6.998266490571	0.001000490571
0	985	7.010625128937	0.001000128937
0	988	7.021348476338	0.001000476338
0	991	7.022432871045	0.000999871045
0	994	7.044175710459	0.000999710459
0	997	7.046600648597	0.000999648597
0	1000	7.05553202799	0.00100002799
0	1003	7.11746528123	0.00100028123
0	1006	7.124242931952	0.000999931952
0	1009	7.168546273163	0.001000273163
0	1012	7.181456710654	0.000999710654
0	1015	7.19438648091	0.00100048091
0	1018	7.199526115716	0.001000115716
0	1021	7.204008948593	0.000999948593
0	1024	7.223909546504	0.000999546504
0	1027	7.230835364922	0.001000364922
0	1030	7.252683396521	0.001000396521
0	1033	7.266541344881	0.001000344881
0	1036	7.283078534645	0.000999534645
0	1039	7.287087135086	0.001000135086
0	1042	7.294821257027	0.001000257027
0	1047	7.300869870394	0.000999870394
0	1048	7.301197608537	0.000999608537
0	1051	7.358671436621	0.001000436621
0	1054	7.361993017116	0.001000017116
0	1057	7.41925711201	0.00100011201
0	1060	7.425144260353	0.001000260353
0	1063	7.446297611038	0.000999611038
0	1066	7.496510226163	0.001000226163
0	1069	7.52479792626	0.00099992626
0	1072	7.526011690473	0.000999690473
0	1075	7.572562955483	0.000999955483
0	1080	7.598013556305	0.000999556305
0	1083	7.610585507819	0.000999507819
0	1086	7.640789704931	0.000999704931
0	1089	7.661118795185	0.000999795185
0	1092	7.67013282713	0.00099982713
0	1095	7.718926224973	0.001000224973
0	1098	7.725550709176	0.000999709176
0	1101	7.744779508305	0.000999508305
0	1104	7.780592713295	0.000999713295
0	1107	7.824001677076	0.000999677076
0	1110	7.835330481524	0.001000481524
0	1113	7.847421822531	0.000999822531
0	1116	7.888907325568	0.001000325568
0	1119	7.899956163553	0.001000163553
0	1122	7.904649000265	0.001000000265
0	1125	7.907085186126	0.001000186126
0	1128	7.92638876105	0.00099976105
0	1131	7.943598557427	0.000999557427
0	1134	7.975959617993	0.000999617993
0	1137	7.977736729546	0.000999729546
0	1140	7.997374701337	0.000999701337
0	1143	8.004881382476	0.001000382476
0	1146	8.054540210519	0.001000210519
0	1151	8.087923541128	0.000999541128
0	1152	8.08829976574	0.00099976574
0	1155	8.100747456377	0.001000456377
0	1158	8.117555996426	0.000999996426
0	1161	8.13226580962	0.00099980962
0	1164	8.138108460069	0.001000460069
0	1167	8.139694585395	0.000999585395
0	1170	8.15663648953	0.00100048953
0	1173	8.201576382084	0.001000382084
0	1176	8.236945809959	0.000999809959
0	1179	8.256471608649	0.000999608649
0	1182	8.289147595571	0.000999595571
0	1185	8.293530046822	0.001000046822
0	1188	8.297133376333	0.001000376333
0	1191	8.337863715948	0.000999715948
0	1196	8.341034528729	0.000999528729
0	1197	8.341650456586	0.001000456586
0	1200	8.362236308142	0.001000308142
0	1203	8.378164180204	0.001000180204
0	1206	8.395589627488	0.000999627488
0	1211	8.42636162599	0.00099962599
0	1212	8.426944394618	0.001000394618
0	1215	8.43036510481	0.00100010481
0	1218	8.440274382732	0.001000382732
0	1221	8.53925374199	0.00099974199
0	1224	8.557757905428	0.000999905428
0	1227	8.579805137658	0.001000137658
0	1232	8.580858300416	0.001000300416
0	1233	8.581580805568	0.000999805568
0	1236	8.653464926847	0.000999926847
0	1239	8.668955317487	0.001000317487
0	1242	8.705169005761	0.001000005761
0	1245	8.745445200824	0.001000200824
0	1248	8.76106767708	0.00099967708
0	1251	8.801306111901	0.001000111901
0	1254	8.84905932208	0.00100032208
0	1257	8.852667682546	0.000999682546
0	1260	8.857467110476	0.001000110476
0	1263	8.868724142596	0.001000142596
0	1266	8.885945596473	0.000999596473
0	1269	8.89145656696	0.00099956696
0	1272	8.920562737923	0.000999737923
0	1275	8.922240985906	0.000999985906
0	1278	8.924390996595	0.000999996595
0	1281	8.927380019869	0.001000019869
0	1284	8.939075200236	0.001000200236
0	1287	8.945285622146	0.000999622146
0	1290	8.967852831142	0.000999831142
0	1293	8.977130501226	0.000999501226
0	1296	9.033182773016	0.000999773016
0	1299	9.064738299255	0.001000299255
0	1302	9.08735632475	0.00100032475
0	1305	9.088437807722	0.000999807722
0	1308	9.116428543743	0.000999543743
0	1311	9.128016518824	0.000999518824
0	1314	9.146765809017	0.000999809017
0	1317	9.151936566852	0.000999566852
0	1320	9.172952991839	0.000999991839
0	1323	9.217662797564	0.000999797564
0	1326	9.221640861942	0.000999861942
0	1329	9.230306331137	0.001000331137
0	1332	9.270862115522	0.001000115522
0	1335	9.30357805856	0.00100005856
0	1338	9.317027107509	0.001000107509
0	1341	9.319703645236	0.000999645236
0	1344	9.33219973219	0.00099973219
0	1347	9.343269416294	0.001000416294
0	1350	9.344930974742	0.000999974742
0	1353	9.384450626536	0.000999626536
0	1356	9.39295051333	0.00099951333
0	1359	9.401717361831	0.001000361831
0	1362	9.413961124489	0.001000124489
0	1365	9.499597674351	0.000999674351
0	1368	9.518237762408	0.000999762408
0	1371	9.525164978043	0.000999978043
0	1374	9.590456343417	0.001000343417
0	1377	9.624795809085	0.000999809085
0	1380	9.633882317715	0.001000317715
0	1383	9.653529158211	0.001000158211
0	1386	9.669289805948	0.000999805948
0	1389	9.696066384877	0.001000384877
0	1392	9.727217082749	0.001000082749
0	1395	9.759140937146	0.000999937146
0	1398	9.766416288608	0.001000288608
0	1401	9.780348923686	0.000999923686
0	1404	9.794781372207	0.001000372207
0	1407	9.798821435518	0.001000435518
0	1410	9.826345131662	0.001000131662
0	1413	9.830027426617	0.001000426617
0	1416	9.845593769219	0.000999769219
0	1419	9.851976251113	0.001000251113
0	1422	9.868841446258	0.001000446258
0	1425	9.872376958861	0.000999958861
0	1428	9.882735902884	0.000999902884
0	1431	9.885384324633	0.001000324633
0	1434	9.916455269255	0.001000269255
0	1437	9.952881481706	0.001000481706

