version 3
run AttackOnNoSec50_record-0-20250829-01:44:00-80739
attr configname AttackOnNoSec50_record
attr datetime 20250829-01:44:00
attr datetimef 20250829-014400
attr experiment AttackOnNoSec50_record
attr inifile run_record.ini
attr iterationvars ""
attr iterationvarsd ""
attr iterationvarsf ""
attr measurement ""
attr network ned.LightIoTNetwork
attr processid 80739
attr repetition 0
attr replication #0
attr resultdir results
attr runnumber 0
attr seedset 1
config output-scalar-file results/AttackOnNoSec50_record-rep1.sca
config output-vector-file results/AttackOnNoSec50_record-rep1.vec
config seed-set 1
config network ned.LightIoTNetwork
config output-scalar-file results/AttackOnNoSec50_record-0.sca
config output-vector-file results/AttackOnNoSec50_record-0.vec
config **.scalar-recording true
config **.vector-recording true
config **.result-recording-modes all
config LightIoTNetwork.numSensorNodes 50
config **.gateway.securityEnabled false
config **.gateway.hmacWindow 3s
config **.gateway.procDelay 0s
config **.gateway.costForward_mJ 5
config **.gateway.costVerify_mJ 0
config **.gateway.batteryInit_mJ 5000
config **.fakeNode.enabled true
config **.fakeNode.attackMode 1
config **.fakeNode.replayInterval 2.5s
config sim-time-limit 10s
config rng-class cMersenneTwister
config num-rngs 1
config seed-set 123
config description "Secure Mode Simulation (includes all scenarios)"
config network ned.LightIoTNetwork
config ned-path .
config sim-time-limit 10s
config record-eventlog true
config cmdenv-express-mode false
config network ned.LightIoTNetwork
config sim-time-limit 10s
config output-scalar-file results/secure_output.sca
config output-vector-file results/secure_output.vec
config network LightIoTNetwork
config sim-time-limit 10s
config output-scalar-file results/nosecure_output.sca
config output-vector-file results/nosecure_output.vec
config network LightIoTNetwork
config sim-time-limit 10s
config output-scalar-file results/attack_output.sca
config output-vector-file results/attack_output.vec
config output-scalar-file results/AttackOnNoSec50_record-0.sca
config output-vector-file results/AttackOnNoSec50_record-0.vec
config **.scalar-recording true
config **.vector-recording true
config **.statistic-recording true
config **.result-recording-modes all
config rng-class cMersenneTwister
config num-rngs 1
config seed-set 123

vector 0 LightIoTNetwork.cloud EndToEndDelay_s ETV
0	3	0.50011438108	3.8108e-07
0	6	0.527387595968	-4.04032e-07
0	9	0.592338595539	-4.04461e-07
0	12	0.592800810235	-1.89765e-07
0	15	0.628124447772	4.47772e-07
0	18	0.640386936953	-6.3047e-08
0	21	0.646755892551	-1.07449e-07
0	24	0.686260211281	2.11281e-07
0	27	0.698101483285	4.83285e-07
0	30	0.704452248989	2.48989e-07
0	33	0.729577220045	2.20045e-07
0	36	0.736088976264	-2.3736e-08
0	39	0.80233256775	-4.3225e-07
0	42	0.813273512991	-4.87009e-07
0	45	0.813424184686	1.84686e-07
0	48	0.84556072508	-2.7492e-07
0	51	0.887910740217	-2.59783e-07
0	54	0.896580726141	-2.73859e-07
0	57	0.896767468657	4.68657e-07
0	60	0.917021998437	-1.563e-09
0	63	0.917304804316	-1.95684e-07
0	66	0.919194519054	-4.80946e-07
0	69	0.930698570097	-4.29903e-07
0	72	0.943452893756	-1.06244e-07
0	75	0.95720480918	-1.9082e-07
0	78	1.018152548233	-4.51767e-07
0	81	1.024548162706	1.62706e-07
0	84	1.034413907211	-9.2789e-08
0	87	1.038816731889	-2.68111e-07
0	90	1.058689827332	-1.72668e-07
0	93	1.169746040367	4.0367e-08
0	96	1.17046750756	-4.9244e-07
0	99	1.18521950068	-4.9932e-07
0	102	1.192322616931	-3.83069e-07
0	105	1.21597051085	-4.8915e-07
0	108	1.220324489288	4.89288e-07
0	111	1.278389235493	2.35493e-07
0	114	1.300744566368	-4.33632e-07
0	117	1.302757503232	-4.96768e-07
0	120	1.346310918219	-8.1781e-08
0	123	1.365020245314	2.45314e-07
0	126	1.376389146084	1.46084e-07
0	129	1.378117437009	4.37009e-07
0	132	1.413962022401	2.2401e-08
0	135	1.4325573612	3.612e-07
0	138	1.435539072612	7.2612e-08
0	141	1.439127794933	-2.05067e-07
0	144	1.444396437378	4.37378e-07
0	147	1.468261571834	-4.28166e-07
0	150	1.497184808133	-1.91867e-07
0	153	1.499040515395	-4.84605e-07
0	156	1.50061176708	-2.3292e-07
0	159	1.558604531968	-4.68032e-07
0	162	1.565943763218	-2.36782e-07
0	165	1.574353021476	2.1476e-08
0	168	1.582734443247	4.43247e-07
0	171	1.624121616269	-3.83731e-07
0	174	1.658259268477	2.68477e-07
0	177	1.720310500404	-4.99596e-07
0	180	1.732207091525	9.1525e-08
0	183	1.748190323403	3.23403e-07
0	186	1.761888712132	-2.87868e-07
0	189	1.795781760477	-2.39523e-07
0	192	1.827420918923	-8.1077e-08
0	195	1.836663386086	3.86086e-07
0	198	1.8457288309	-1.691e-07
0	201	1.852193782944	-2.17056e-07
0	204	1.854693397414	3.97414e-07
0	207	1.880125125218	1.25218e-07
0	210	1.904851419385	4.19385e-07
0	213	1.921810204256	2.04256e-07
0	216	1.93138242471	4.2471e-07
0	219	1.934956148686	1.48686e-07
0	222	1.939712578198	-4.21802e-07
0	225	1.956494703982	-2.96018e-07
0	228	1.987361464603	4.64603e-07
0	231	2.010378028452	2.8452e-08
0	234	2.063622728549	-2.71451e-07
0	237	2.084442769689	-2.30311e-07
0	240	2.144918560377	-4.39623e-07
0	243	2.148411415378	4.15378e-07
0	246	2.156462044827	4.4827e-08
0	249	2.2018731853	1.853e-07
0	252	2.205197410984	4.10984e-07
0	255	2.217430338077	3.38077e-07
0	258	2.220100638177	-3.61823e-07
0	261	2.221389768785	-2.31215e-07
0	264	2.222814145172	1.45172e-07
0	267	2.278180355718	3.55718e-07
0	270	2.2973518888	-1.112e-07
0	273	2.335889623127	-3.76873e-07
0	276	2.358867950272	-4.9728e-08
0	279	2.363025889686	-1.10314e-07
0	282	2.370402151206	1.51206e-07
0	285	2.372684851056	-1.48944e-07
0	288	2.393094141222	1.41222e-07
0	291	2.401058199815	1.99815e-07
0	294	2.415765116457	1.16457e-07
0	297	2.458108246978	2.46978e-07
0	300	2.473221448437	4.48437e-07
0	303	2.508269385434	3.85434e-07
0	306	2.513231395464	3.95464e-07
0	309	2.535843774769	-2.25231e-07
0	312	2.536378873187	-1.26813e-07
0	315	2.583907638444	-3.61556e-07
0	318	2.641976798838	-2.01162e-07
0	321	2.642879600404	-3.99596e-07
0	324	2.656442697439	-3.02561e-07
0	327	2.656573900533	-9.9467e-08
0	330	2.737188325171	3.25171e-07
0	333	2.756766633364	-3.66636e-07
0	336	2.761372729111	-2.70889e-07
0	339	2.77671223348	2.3348e-07
0	342	2.804389579221	-4.20779e-07
0	345	2.818569424144	4.24144e-07
0	348	2.825318305473	3.05473e-07
0	351	2.826328209508	2.09508e-07
0	354	2.863589938357	-6.1643e-08
0	357	2.894606663845	2.394606663845
0	360	2.894645069726	6.9726e-08
0	363	2.914193621929	-3.78071e-07
0	366	2.927970517846	-4.82154e-07
0	369	2.928499902831	-9.7169e-08
0	372	2.955106622679	-3.77321e-07
0	375	2.970197317843	3.17843e-07
0	378	2.973613420315	4.20315e-07
0	381	2.9785926098	-3.902e-07
0	384	3.018498130142	1.30142e-07
0	387	3.024943775404	-2.24596e-07
0	390	3.057480560383	-4.39617e-07
0	393	3.127350040805	4.0805e-08
0	396	3.129866409349	4.09349e-07
0	399	3.137539791129	-2.08871e-07
0	402	3.152097842098	-1.57902e-07
0	405	3.189220974594	-2.5406e-08
0	408	3.208175232494	2.32494e-07
0	411	3.240125152934	1.52934e-07
0	414	3.275911053922	5.3922e-08
0	417	3.286362890806	-1.09194e-07
0	420	3.298257419886	4.19886e-07
0	423	3.30901958989	-4.1011e-07
0	426	3.344047261448	2.61448e-07
0	429	3.352621926275	-7.3725e-08
0	432	3.354805450048	4.50048e-07
0	435	3.37657506885	6.885e-08
0	438	3.378032271378	2.71378e-07
0	441	3.395300483238	4.83238e-07
0	444	3.406292287214	2.87214e-07
0	447	3.451112024765	2.4765e-08
0	450	3.454572399333	3.99333e-07
0	453	3.465793185914	1.85914e-07
0	456	3.50593204503	4.503e-08
0	459	3.508095979457	-2.0543e-08
0	462	3.53872916107	1.6107e-07
0	465	3.581836876691	-1.23309e-07
0	468	3.598109350866	3.50866e-07
0	471	3.598733111191	1.11191e-07
0	474	3.670446896134	-1.03866e-07
0	477	3.692139219353	2.19353e-07
0	480	3.701642294926	2.94926e-07
0	483	3.786107170349	1.70349e-07
0	486	3.789357242501	2.42501e-07
0	489	3.79480755129	-4.4871e-07
0	492	3.795097973197	-2.6803e-08
0	495	3.806262112642	1.12642e-07
0	498	3.813849543455	-4.56545e-07
0	501	3.81757551711	-4.8289e-07
0	504	3.854578066663	6.6663e-08
0	507	3.865951413103	4.13103e-07
0	510	3.87594725918	2.5918e-07
0	513	3.878974820953	-1.79047e-07
0	516	3.914118140889	1.40889e-07
0	519	3.972238962585	-3.7415e-08
0	522	3.97852818789	1.8789e-07
0	525	3.993370865005	-1.34995e-07
0	528	4.01128090946	-9.054e-08
0	531	4.018119944026	-5.5974e-08
0	534	4.031374988472	-1.1528e-08
0	537	4.049282919382	-8.0618e-08
0	540	4.050299234782	2.34782e-07
0	543	4.063165327674	3.27674e-07
0	546	4.064911307488	3.07488e-07
0	549	4.179203401226	4.01226e-07
0	552	4.17923730514	3.0514e-07
0	555	4.187256704132	-2.95868e-07
0	558	4.227437643101	-3.56899e-07
0	561	4.255803074408	7.4408e-08
0	564	4.256424985081	-1.4919e-08
0	567	4.26799025163	2.5163e-07
0	570	4.274218077911	7.7911e-08
0	573	4.295874548191	-4.51809e-07
0	576	4.33830437148	3.7148e-07
0	579	4.364278443484	4.43484e-07
0	582	4.385158363823	3.63823e-07
0	585	4.39131096648	-3.352e-08
0	588	4.396631274884	2.74884e-07
0	591	4.409124449128	4.49128e-07
0	594	4.431122166338	1.66338e-07
0	597	4.433297829564	-1.70436e-07
0	600	4.440530760167	-2.39833e-07
0	603	4.460840115883	1.15883e-07
0	606	4.474541008053	8.053e-09
0	609	4.51350760064	-3.9936e-07
0	612	4.521658831416	-1.68584e-07
0	615	4.570187063282	6.3282e-08
0	618	4.639917855338	-1.44662e-07
0	621	4.659025295729	2.95729e-07
0	624	4.664575057151	5.7151e-08
0	627	4.697971799458	-2.00542e-07
0	630	4.748898183135	1.83135e-07
0	633	4.754560809023	-1.90977e-07
0	636	4.773846248444	2.48444e-07
0	639	4.782835779572	-2.20428e-07
0	642	4.78996355813	-4.4187e-07
0	645	4.810779193742	1.93742e-07
0	648	4.813442923082	-7.6918e-08
0	651	4.855754900956	-9.9044e-08
0	654	4.864843054394	5.4394e-08
0	657	4.880188061344	6.1344e-08
0	660	4.892149559502	-4.40498e-07
0	663	4.899666112568	1.12568e-07
0	666	4.90861314917	1.4917e-07
0	669	4.949672124675	1.24675e-07
0	672	4.962482954095	-4.5905e-08
0	675	4.965415983415	-1.6585e-08
0	678	4.99637179561	-2.0439e-07
0	681	5.024237289978	2.89978e-07
0	684	5.027081153309	1.53309e-07
0	687	5.057483576563	-4.23437e-07
0	690	5.066560814996	-1.85004e-07
0	693	5.079889957978	-4.2022e-08
0	696	5.114257938043	-6.1957e-08
0	699	5.120950966794	-3.3206e-08
0	702	5.137298492249	4.92249e-07
0	705	5.192844444094	4.44094e-07
0	708	5.199850574601	-4.25399e-07
0	711	5.208673749305	-2.50695e-07
0	714	5.229978639865	-3.60135e-07
0	717	5.260197360162	3.60162e-07
0	720	5.269520640932	-3.59068e-07
0	723	5.271861612285	-3.87715e-07
0	726	5.296972264302	2.64302e-07
0	729	5.29810802578	2.578e-08
0	732	5.306631425489	4.25489e-07
0	735	5.31756702913	2.913e-08
0	738	5.351549212821	2.12821e-07
0	741	5.358366663102	-3.36898e-07
0	744	5.394606663845	4.894606663845
0	747	5.398274326697	3.26697e-07
0	750	5.398593330522	3.30522e-07
0	753	5.420892700739	-2.99261e-07
0	756	5.468606329104	3.29104e-07
0	759	5.505303419662	4.19662e-07
0	762	5.524071995308	-4.692e-09
0	765	5.58385995915	-4.085e-08
0	768	5.595581623866	-3.76134e-07
0	771	5.611299562687	-4.37313e-07
0	774	5.615192416543	4.16543e-07
0	777	5.638593241945	2.41945e-07
0	780	5.653808535589	-4.64411e-07
0	783	5.667209471203	4.71203e-07
0	786	5.75948435897	3.5897e-07
0	789	5.771712662605	-3.37395e-07
0	792	5.773548865784	-1.34216e-07
0	795	5.787011571182	-4.28818e-07
0	798	5.787859580014	-4.19986e-07
0	801	5.822985237697	2.37697e-07
0	804	5.846260967245	-3.2755e-08
0	807	5.850101559842	-4.40158e-07
0	810	5.876754928706	-7.1294e-08
0	813	5.927442048722	4.8722e-08
0	816	5.940314595961	-4.04039e-07
0	819	5.942988112523	1.12523e-07
0	822	5.952091469569	4.69569e-07
0	825	5.981753760344	-2.39656e-07
0	828	5.985072572156	-4.27844e-07
0	831	6.011093162932	1.62932e-07
0	834	6.048242012225	1.2225e-08
0	837	6.052123342036	3.42036e-07
0	840	6.077455747174	-2.52826e-07
0	843	6.091138005442	5.442e-09
0	846	6.096945660515	-3.39485e-07
0	849	6.099934419944	4.19944e-07
0	852	6.104827983072	-1.6928e-08
0	855	6.106907904473	-9.5527e-08
0	858	6.109679382155	3.82155e-07
0	861	6.130518271401	2.71401e-07
0	864	6.132942439522	4.39522e-07
0	867	6.169107735111	-2.64889e-07
0	870	6.193360436941	4.36941e-07
0	873	6.243249893514	-1.06486e-07
0	876	6.258749099961	9.9961e-08
0	879	6.301104526919	-4.73081e-07
0	882	6.317416705051	-2.94949e-07
0	885	6.329897214053	2.14053e-07
0	888	6.346846623299	-3.76701e-07
0	891	6.352802615566	-3.84434e-07
0	894	6.353363956836	-4.3164e-08
0	897	6.360164825991	-1.74009e-07
0	900	6.370310058957	5.8957e-08
0	903	6.383001185721	1.85721e-07
0	906	6.429139081016	8.1016e-08
0	909	6.464175314038	3.14038e-07
0	912	6.55338704153	4.153e-08
0	915	6.555851064762	6.4762e-08
0	918	6.55602291012	-8.988e-08
0	921	6.566228593327	-4.06673e-07
0	924	6.597636902658	-9.7342e-08
0	927	6.604273684928	-3.15072e-07
0	930	6.6092017164	-2.836e-07
0	933	6.617527261236	2.61236e-07
0	936	6.704036368522	3.68522e-07
0	939	6.712634761818	-2.38182e-07
0	942	6.760105176736	1.76736e-07
0	945	6.797212016769	1.6769e-08
0	948	6.80413136594	3.6594e-07
0	951	6.808249530429	-4.69571e-07
0	954	6.874753910769	-8.9231e-08
0	957	6.888284148649	1.48649e-07
0	960	6.902724161093	1.61093e-07
0	963	6.922625385179	3.85179e-07
0	966	6.940264965128	-3.4872e-08
0	969	6.946120688598	-3.11402e-07
0	972	6.950845412211	4.12211e-07
0	975	6.975633160164	1.60164e-07
0	978	7.000660900213	-9.9787e-08
0	981	7.008814026089	2.6089e-08
0	984	7.009063714556	-2.85444e-07
0	987	7.01484460486	-3.9514e-07
0	990	7.018832412036	4.12036e-07
0	993	7.106948403456	4.03456e-07
0	996	7.107444489934	4.89934e-07
0	999	7.114038191689	1.91689e-07
0	1002	7.130158533017	-4.66983e-07
0	1005	7.130727584381	-4.15619e-07
0	1008	7.14300776529	-2.3471e-07
0	1011	7.154208331415	3.31415e-07
0	1014	7.193293543765	-4.56235e-07
0	1017	7.207130724471	-2.75529e-07
0	1020	7.22162236264	3.6264e-07
0	1023	7.222221581033	-4.18967e-07
0	1026	7.23430638751	3.8751e-07
0	1029	7.251764426799	4.26799e-07
0	1032	7.28200916429	1.6429e-07
0	1035	7.307469816179	-1.83821e-07
0	1038	7.326131240791	2.40791e-07
0	1041	7.329392192	1.92e-07
0	1044	7.361922573718	-4.26282e-07
0	1047	7.362795668048	-3.31952e-07
0	1050	7.380499702646	-2.97354e-07
0	1053	7.415139936236	-6.3764e-08
0	1056	7.478205967136	-3.2864e-08
0	1059	7.492682048259	4.8259e-08
0	1062	7.509006821781	-1.78219e-07
0	1065	7.510903869197	-1.30803e-07
0	1068	7.547464054591	5.4591e-08
0	1071	7.54828156773	-4.3227e-07
0	1074	7.5600740002	2e-10
0	1077	7.58321855669	-4.4331e-07
0	1080	7.587233620184	-3.79816e-07
0	1083	7.627486448642	4.48642e-07
0	1086	7.657122007431	7.431e-09
0	1089	7.702139979182	-2.0818e-08
0	1092	7.716295865644	-1.34356e-07
0	1095	7.729979870235	-1.29765e-07
0	1098	7.740690632677	-3.67323e-07
0	1101	7.788061207254	2.07254e-07
0	1104	7.841686947505	-5.2495e-08
0	1107	7.85468247761	4.7761e-07
0	1110	7.854787181505	1.81505e-07
0	1113	7.85957688503	-1.1497e-07
0	1116	7.874773289961	2.89961e-07
0	1119	7.889532268373	2.68373e-07
0	1122	7.894606663845	7.394606663845
0	1125	8.001215878222	-1.21778e-07
0	1128	8.013997775875	-2.24125e-07
0	1131	8.024130869656	-1.30344e-07
0	1134	8.028553076554	7.6554e-08
0	1137	8.043350750767	-2.49233e-07
0	1140	8.060103844852	-1.55148e-07
0	1143	8.061835745861	-2.54139e-07
0	1146	8.07894169176	-3.0824e-07
0	1149	8.08277364713	-3.5287e-07
0	1152	8.103794005606	5.606e-09
0	1155	8.131606826373	-1.73627e-07
0	1158	8.155302803591	-1.96409e-07
0	1161	8.158755656378	-3.43622e-07
0	1164	8.176329912432	-8.7568e-08
0	1167	8.184799478389	4.78389e-07
0	1170	8.190020958426	-4.1574e-08
0	1173	8.247729149647	1.49647e-07
0	1176	8.254493016936	1.6936e-08
0	1179	8.273003658047	-3.41953e-07
0	1182	8.289176086569	8.6569e-08
0	1185	8.292831984953	-1.5047e-08
0	1188	8.303185534338	-4.65662e-07
0	1191	8.320700800977	-1.99023e-07
0	1194	8.375103671336	-3.28664e-07
0	1197	8.385278244643	2.44643e-07
0	1200	8.394662191625	1.91625e-07
0	1203	8.414062746101	-2.53899e-07
0	1206	8.449882109882	1.09882e-07
0	1209	8.451605932741	-6.7259e-08
0	1212	8.47030296689	-3.311e-08
0	1215	8.520337459722	4.59722e-07
0	1218	8.565235163784	1.63784e-07
0	1221	8.568241190911	1.90911e-07
0	1224	8.577722069854	6.9854e-08
0	1227	8.586388757965	-2.42035e-07
0	1230	8.58838724154	2.4154e-07
0	1233	8.630585325696	3.25696e-07
0	1236	8.634800195274	1.95274e-07
0	1239	8.635530297691	2.97691e-07
0	1242	8.65432014144	1.4144e-07
0	1245	8.668488698919	-3.01081e-07
0	1248	8.737157963542	-3.6458e-08
0	1251	8.750600216538	2.16538e-07
0	1254	8.77846152857	-4.7143e-07
0	1257	8.833252255805	2.55805e-07
0	1260	8.853748412756	4.12756e-07
0	1263	8.911373666022	-3.33978e-07
0	1266	8.91635022643	2.2643e-07
0	1269	8.920967320725	3.20725e-07
0	1272	8.926923232899	2.32899e-07
0	1275	8.938533868642	-1.31358e-07
0	1278	8.95892200279	2.79e-09
0	1281	8.968616654864	-3.45136e-07
0	1284	8.975807838748	-1.61252e-07
0	1287	8.98885157695	-4.2305e-07
0	1290	8.99946852331	-4.7669e-07
0	1293	9.006336538866	-4.61134e-07
0	1296	9.035911788	-2.12e-07
0	1299	9.083906081085	8.1085e-08
0	1302	9.093868385069	3.85069e-07
0	1305	9.117578731384	-2.68616e-07
0	1308	9.147211859748	-1.40252e-07
0	1311	9.150732945604	-5.4396e-08
0	1314	9.156858002533	2.533e-09
0	1317	9.208242910123	-8.9877e-08
0	1320	9.210254336614	3.36614e-07
0	1323	9.246900169784	1.69784e-07
0	1326	9.248349698539	-3.01461e-07
0	1329	9.248909702059	-2.97941e-07
0	1332	9.250222572218	-4.27782e-07
0	1335	9.259244699496	-3.00504e-07
0	1338	9.268593363883	3.63883e-07
0	1341	9.303800716298	-2.83702e-07
0	1344	9.383010077056	7.7056e-08
0	1347	9.401537658972	-3.41028e-07
0	1350	9.40617746301	4.6301e-07
0	1353	9.441219904182	-9.5818e-08
0	1356	9.447176382784	3.82784e-07
0	1359	9.452241643518	-3.56482e-07
0	1362	9.493164060125	6.0125e-08
0	1365	9.526019897126	-1.02874e-07
0	1368	9.536740295587	2.95587e-07
0	1371	9.539627430076	4.30076e-07
0	1374	9.627506350353	3.50353e-07
0	1377	9.640313720749	-2.79251e-07
0	1380	9.644007588831	-4.11169e-07
0	1383	9.644491213514	2.13514e-07
0	1386	9.655335647008	-3.52992e-07
0	1389	9.677758062166	6.2166e-08
0	1392	9.706415665801	-3.34199e-07
0	1395	9.711663788092	-2.11908e-07
0	1398	9.727945556258	-4.43742e-07
0	1401	9.779053644417	-3.55583e-07
0	1404	9.790396026662	2.6662e-08
0	1407	9.793875055155	5.5155e-08
0	1410	9.810320934188	-6.5812e-08
0	1413	9.841640523403	-4.76597e-07
0	1416	9.889645398968	3.98968e-07
0	1419	9.909424370481	3.70481e-07
0	1422	9.919486485748	4.85748e-07
0	1425	9.940789382392	3.82392e-07
0	1428	9.949208563286	-4.36714e-07
0	1431	9.975586847681	-1.52319e-07
0	1434	9.987312936271	-6.3729e-08

