file 19596 1756419241                                           
version 3
run Attack50_window3s_record-0-20250829-01:44:01-81090
attr configname Attack50_window3s_record
attr datetime 20250829-01:44:01
attr datetimef 20250829-014401
attr experiment Attack50_window3s_record
attr inifile run_record.ini
attr iterationvars ""
attr iterationvarsd ""
attr iterationvarsf ""
attr measurement ""
attr network ned.LightIoTNetwork
attr processid 81090
attr repetition 0
attr replication #0
attr resultdir results
attr runnumber 0
attr seedset 2
config output-scalar-file results/Attack50_window3s_record-rep2.sca
config output-vector-file results/Attack50_window3s_record-rep2.vec
config seed-set 2
config network ned.LightIoTNetwork
config output-scalar-file results/Attack50_window3s_record-0.sca
config output-vector-file results/Attack50_window3s_record-0.vec
config **.scalar-recording true
config **.vector-recording true
config **.result-recording-modes all
config LightIoTNetwork.numSensorNodes 50
config **.gateway.securityEnabled true
config **.gateway.hmacWindow 3s
config **.gateway.procDelay 1ms
config **.gateway.costForward_mJ 5
config **.gateway.costVerify_mJ 5
config **.gateway.batteryInit_mJ 5000
config **.fakeNode.enabled true
config **.fakeNode.attackMode 1
config **.fakeNode.replayInterval 2.5s
config sim-time-limit 10s
config rng-class cMersenneTwister
config num-rngs 1
config seed-set 123
config description "Secure Mode Simulation (includes all scenarios)"
config network ned.LightIoTNetwork
config ned-path .
config sim-time-limit 10s
config record-eventlog true
config cmdenv-express-mode false
config network ned.LightIoTNetwork
config sim-time-limit 10s
config output-scalar-file results/secure_output.sca
config output-vector-file results/secure_output.vec
config network LightIoTNetwork
config sim-time-limit 10s
config output-scalar-file results/nosecure_output.sca
config output-vector-file results/nosecure_output.vec
config network LightIoTNetwork
config sim-time-limit 10s
config output-scalar-file results/attack_output.sca
config output-vector-file results/attack_output.vec
config output-scalar-file results/Attack50_window3s_record-0.sca
config output-vector-file results/Attack50_window3s_record-0.vec
config **.scalar-recording true
config **.vector-recording true
config **.statistic-recording true
config **.result-recording-modes all
config rng-class cMersenneTwister
config num-rngs 1
config seed-set 123

vector 0 LightIoTNetwork.cloud EndToEndDelay_s ETV
0	2435 17160 3 1437 0.526926227914 9.952881481706 477 0.000999501226 0.001000498885 0.47699955456 0.00047699914739276

