version 3
run Attack20_record-0-20250829-01:43:59-80235
attr configname Attack20_record
attr datetime 20250829-01:43:59
attr datetimef 20250829-014359
attr experiment Attack20_record
attr inifile run_record.ini
attr iterationvars ""
attr iterationvarsd ""
attr iterationvarsf ""
attr measurement ""
attr network ned.LightIoTNetwork
attr processid 80235
attr repetition 0
attr replication #0
attr resultdir results
attr runnumber 0
attr seedset 1
config output-scalar-file results/Attack20_record-rep1.sca
config output-vector-file results/Attack20_record-rep1.vec
config seed-set 1
config network ned.LightIoTNetwork
config output-scalar-file results/Attack20_record-0.sca
config output-vector-file results/Attack20_record-0.vec
config **.scalar-recording true
config **.vector-recording true
config **.result-recording-modes all
config LightIoTNetwork.numSensorNodes 20
config **.fakeNode.enabled true
config **.fakeNode.attackMode 1
config **.fakeNode.replayInterval 2.5s
config **.gateway.securityEnabled true
config **.gateway.hmacWindow 1s
config **.gateway.procDelay 1ms
config **.gateway.costForward_mJ 5
config **.gateway.costVerify_mJ 5
config **.gateway.batteryInit_mJ 5000
config sim-time-limit 10s
config description "Secure Mode Simulation (includes all scenarios)"
config network ned.LightIoTNetwork
config ned-path .
config sim-time-limit 10s
config record-eventlog true
config cmdenv-express-mode false
config network ned.LightIoTNetwork
config sim-time-limit 10s
config output-scalar-file results/secure_output.sca
config output-vector-file results/secure_output.vec
config network LightIoTNetwork
config sim-time-limit 10s
config output-scalar-file results/nosecure_output.sca
config output-vector-file results/nosecure_output.vec
config network LightIoTNetwork
config sim-time-limit 10s
config output-scalar-file results/attack_output.sca
config output-vector-file results/attack_output.vec
config output-scalar-file results/Attack20_record-0.sca
config output-vector-file results/Attack20_record-0.vec
config **.scalar-recording true
config **.vector-recording true
config **.statistic-recording true
config **.result-recording-modes all
config rng-class cMersenneTwister
config num-rngs 1
config seed-set 123

vector 0 LightIoTNetwork.cloud EndToEndDelay_s ETV
0	3	0.50111438108	0.00100038108
0	6	0.593338595539	0.000999595539
0	9	0.629124447772	0.001000447772
0	12	0.647755892551	0.000999892551
0	15	0.687260211281	0.001000211281
0	18	0.737088976264	0.000999976264
0	21	0.80333256775	0.00099956775
0	24	0.84656072508	0.00099972508
0	27	0.888910740217	0.000999740217
0	32	0.897580726141	0.000999726141
0	33	0.897767468657	0.001000468657
0	36	0.918021998437	0.000999998437
0	39	1.039816731889	0.000999731889
0	42	1.170746040367	0.001000040367
0	45	1.221324489288	0.001000489288
0	48	1.347310918219	0.000999918219
0	51	1.4335573612	0.0010003612
0	54	1.436539072612	0.001000072612
0	57	1.463769083678	0.001000083678
0	60	1.498184808133	0.000999808133
0	63	1.500040515395	0.000999515395
0	66	1.588646342349	0.001000342349
0	69	1.630382495675	0.001000495675
0	72	1.634034080313	0.001000080313
0	75	1.675950790032	0.000999790032
0	78	1.749248011759	0.001000011759
0	81	1.752038244274	0.001000244274
0	84	1.812712463666	0.001000463666
0	87	1.895793521659	0.000999521659
0	90	1.9014829593	0.0009999593
0	93	1.931674227653	0.001000227653
0	96	1.980559873137	0.000999873137
0	99	2.031257693725	0.000999693725
0	102	2.182484005833	0.001000005833
0	105	2.207464203307	0.001000203307
0	108	2.27538830561	0.00100030561
0	111	2.376159369269	0.001000369269
0	116	2.519446930777	0.000999930777
0	119	2.521382920187	0.000999920187
0	122	2.543234617565	0.000999617565
0	125	2.558333721407	0.000999721407
0	128	2.594510952079	0.000999952079
0	131	2.59671891725	0.00099991725
0	134	2.682298656716	0.000999656716
0	137	2.690933996321	0.000999996321
0	140	2.755668753921	0.000999753921
0	143	2.787712535145	0.000999535145
0	146	2.887990292883	0.001000292883
0	149	2.897568714547	0.000999714547
0	152	2.968797570722	0.000999570722
0	155	2.980404292069	0.001000292069
0	158	2.997503609791	0.000999609791
0	161	3.090294962678	0.000999962678
0	164	3.097178366663	0.001000366663
0	167	3.162074198782	0.001000198782
0	170	3.209354390133	0.001000390133
0	173	3.288008008686	0.001000008686
0	176	3.462903984845	0.000999984845
0	179	3.555488528427	0.000999528427
0	182	3.576946824765	0.000999824765
0	185	3.578732476219	0.001000476219
0	188	3.595075431628	0.001000431628
0	191	3.631049735586	0.000999735586
0	194	3.673291572112	0.000999572112
0	197	3.727222713851	0.000999713851
0	200	3.762301811785	0.000999811785
0	203	3.77387656311	0.00099956311
0	206	3.855494643304	0.000999643304
0	209	3.908828318653	0.001000318653
0	212	3.926365715428	0.000999715428
0	215	3.931900697503	0.000999697503
0	218	4.034803794719	0.000999794719
0	221	4.113012046156	0.001000046156
0	224	4.1445819678	0.0009999678
0	227	4.146957857184	0.000999857184
0	230	4.164103501359	0.000999501359
0	233	4.19484227069	0.00100027069
0	236	4.512932847323	0.000999847323
0	239	4.580294525087	0.000999525087
0	242	4.590748795283	0.000999795283
0	245	4.610859621152	0.000999621152
0	248	4.629380370559	0.001000370559
0	251	4.644708562245	0.000999562245
0	254	4.67471904226	0.00100004226
0	257	4.716449613985	0.000999613985
0	260	4.718301472789	0.001000472789
0	263	4.776139845721	0.000999845721
0	266	4.820157678215	0.000999678215
0	269	4.823501153498	0.001000153498
0	272	4.915944420336	0.001000420336
0	277	4.925748402461	0.001000402461
0	280	5.032246497947	0.001000497947
0	283	5.103304796455	0.000999796455
0	286	5.116522895613	0.000999895613
0	289	5.118740365443	0.001000365443
0	292	5.121658569969	0.000999569969
0	295	5.227631891448	0.000999891448
0	298	5.438938561151	0.000999561151
0	301	5.494622186965	0.001000186965
0	304	5.527584222214	0.001000222214
0	307	5.58525440169	0.00100040169
0	310	5.617044664476	0.000999664476
0	313	5.665147476666	0.001000476666
0	316	5.671410804311	0.000999804311
0	319	5.728080829115	0.000999829115
0	322	5.735925867896	0.000999867896
0	325	5.798539289948	0.001000289948
0	328	5.818472310271	0.001000310271
0	331	5.826616929215	0.000999929215
0	334	5.840378978265	0.000999978265
0	337	5.938930808169	0.000999808169
0	340	6.045868610054	0.000999610054
0	343	6.047070019295	0.001000019295
0	346	6.126092460122	0.001000460122
0	349	6.139519677426	0.000999677426
0	352	6.179827687725	0.000999687725
0	355	6.210047497203	0.001000497203
0	358	6.440825271255	0.001000271255
0	361	6.448051108302	0.001000108302
0	364	6.478890233463	0.001000233463
0	367	6.591944100265	0.001000100265
0	370	6.599855861695	0.000999861695
0	373	6.710290835913	0.000999835913
0	376	6.718761721136	0.000999721136
0	379	6.726692747812	0.000999747812
0	382	6.728463002037	0.001000002037
0	385	6.755135103384	0.001000103384
0	388	6.806659391638	0.001000391638
0	393	6.847558259986	0.001000259986
0	394	6.847999953174	0.000999953174
0	397	6.879713950655	0.000999950655
0	400	6.975063243344	0.001000243344
0	403	7.078627539821	0.000999539821
0	406	7.116007769223	0.000999769223
0	409	7.129070281632	0.001000281632
0	412	7.198000393271	0.001000393271
0	415	7.268746639438	0.000999639438
0	420	7.458136279017	0.001000279017
0	423	7.524676202632	0.001000202632
0	426	7.527350802229	0.000999802229
0	429	7.559570616041	0.000999616041
0	432	7.600101738586	0.000999738586
0	435	7.646616989816	0.000999989816
0	438	7.699886872502	0.000999872502
0	441	7.730651972419	0.000999972419
0	444	7.781070791951	0.000999791951
0	447	7.786194758419	0.000999758419
0	450	7.789941260148	0.001000260148
0	453	7.805119921521	0.000999921521
0	456	7.855243198922	0.001000198922
0	459	7.910173726291	0.000999726291
0	462	8.050879744509	0.000999744509
0	465	8.060564959071	0.000999959071
0	468	8.085560941066	0.000999941066
0	471	8.143271994054	0.000999994054
0	474	8.248162813786	0.000999813786
0	477	8.296313935168	0.000999935168
0	480	8.44993917879	0.00100017879
0	483	8.503335876504	0.000999876504
0	486	8.597611533967	0.000999533967
0	489	8.604012020513	0.001000020513
0	492	8.624836179824	0.001000179824
0	495	8.676166868978	0.000999868978
0	498	8.701439790776	0.000999790776
0	501	8.743926838901	0.000999838901
0	506	8.750075359944	0.001000359944
0	507	8.750850459675	0.001000459675
0	510	8.776426264898	0.001000264898
0	513	8.838841369864	0.001000369864
0	516	8.934420441998	0.001000441998
0	519	8.960731396335	0.001000396335
0	522	9.036497982567	0.000999982567
0	525	9.045605832919	0.000999832919
0	528	9.136833324864	0.001000324864
0	531	9.178528950897	0.000999950897
0	534	9.280851113446	0.001000113446
0	537	9.295935749052	0.000999749052
0	540	9.418094278706	0.001000278706
0	543	9.474278322768	0.001000322768
0	546	9.520560727944	0.000999727944
0	549	9.588980334368	0.001000334368
0	552	9.661402315296	0.001000315296
0	555	9.691422217408	0.001000217408
0	560	9.714734031796	0.001000031796
0	561	9.714988911547	0.000999911547
0	564	9.758053625722	0.000999625722
0	567	9.765753281418	0.001000281418
0	570	9.814802027889	0.001000027889
0	573	9.839217849237	0.000999849237
0	576	9.881825837189	0.000999837189

