version 3
run NoSec50_record-0-20250901-01:07:53-79942
attr configname NoSec50_record
attr datetime 20250901-01:07:53
attr datetimef 20250901-010753
attr experiment NoSec50_record
attr inifile run_record.ini
attr iterationvars ""
attr iterationvarsd ""
attr iterationvarsf ""
attr measurement ""
attr network ned.LightIoTNetwork
attr processid 79942
attr repetition 0
attr replication #0
attr resultdir results
attr runnumber 0
attr seedset 123
config network ned.LightIoTNetwork
config output-scalar-file results/NoSec50_record-0.sca
config output-vector-file results/NoSec50_record-0.vec
config **.scalar-recording true
config **.vector-recording true
config **.result-recording-modes all
config LightIoTNetwork.numSensorNodes 50
config **.fakeNode.enabled false
config **.gateway.securityEnabled false
config **.gateway.procDelay 0s
config **.gateway.costForward_mJ 5
config **.gateway.costVerify_mJ 0
config **.gateway.batteryInit_mJ 5000
config sim-time-limit 10s
config description "Secure Mode Simulation (includes all scenarios)"
config network ned.LightIoTNetwork
config ned-path .
config sim-time-limit 10s
config record-eventlog true
config cmdenv-express-mode false
config network ned.LightIoTNetwork
config sim-time-limit 10s
config output-scalar-file results/secure_output.sca
config output-vector-file results/secure_output.vec
config network LightIoTNetwork
config sim-time-limit 10s
config output-scalar-file results/nosecure_output.sca
config output-vector-file results/nosecure_output.vec
config network LightIoTNetwork
config sim-time-limit 10s
config output-scalar-file results/attack_output.sca
config output-vector-file results/attack_output.vec
config output-scalar-file results/NoSec50_record-0.sca
config output-vector-file results/NoSec50_record-0.vec
config **.scalar-recording true
config **.vector-recording true
config **.statistic-recording true
config **.result-recording-modes all
config rng-class cMersenneTwister
config num-rngs 1
config seed-set 123

vector 0 LightIoTNetwork.cloud EndToEndDelay_s ETV
0	3	0.559677898185	-1.01815e-07
0	6	0.58372648526	4.8526e-07
0	9	0.639950763201	-2.36799e-07
0	12	0.675451755989	-2.44011e-07
0	15	0.682491732528	-2.67472e-07
0	18	0.726851454936	4.54936e-07
0	21	0.744759279769	2.79769e-07
0	24	0.786139338743	3.38743e-07
0	27	0.797780498164	4.98164e-07
0	30	0.824150895933	-1.04067e-07
0	33	0.843178014737	1.4737e-08
0	36	0.857728919946	-8.0054e-08
0	39	0.892117517302	-4.82698e-07
0	42	0.898044250906	2.50906e-07
0	45	0.901017554104	-4.45896e-07
0	48	0.910924367839	3.67839e-07
0	51	0.917209947016	-5.2984e-08
0	54	0.923106460599	4.60599e-07
0	57	0.927863489604	4.89604e-07
0	60	0.928470924962	-7.5038e-08
0	63	0.93857224728	2.4728e-07
0	66	0.940257177455	1.77455e-07
0	69	0.980931907427	-9.2573e-08
0	72	0.991118932609	-6.7391e-08
0	75	0.992084773025	-2.26975e-07
0	78	1.031551370164	3.70164e-07
0	81	1.031827588566	-4.11434e-07
0	84	1.051314765122	-2.34878e-07
0	87	1.079694297398	2.97398e-07
0	90	1.093902397901	3.97901e-07
0	93	1.111023514532	-4.85468e-07
0	96	1.127317003906	3.906e-09
0	99	1.131792020286	2.0286e-08
0	102	1.134400961921	-3.8079e-08
0	105	1.184829734266	-2.65734e-07
0	108	1.190884851385	-1.48615e-07
0	111	1.194755175151	1.75151e-07
0	114	1.196469187271	1.87271e-07
0	117	1.212330177892	1.77892e-07
0	120	1.212955321418	3.21418e-07
0	123	1.219150308752	3.08752e-07
0	126	1.21946897055	-2.945e-08
0	129	1.222443384118	3.84118e-07
0	132	1.22445532144	3.2144e-07
0	135	1.229049708461	-2.91539e-07
0	138	1.237995401956	4.01956e-07
0	141	1.240296386881	3.86881e-07
0	144	1.280027760426	-2.39574e-07
0	147	1.349431794137	-2.05863e-07
0	150	1.480764200445	2.00445e-07
0	153	1.524269680027	-3.19973e-07
0	156	1.612308494793	4.94793e-07
0	159	1.614670747193	-2.52807e-07
0	162	1.628144379612	3.79612e-07
0	165	1.650212042406	4.2406e-08
0	168	1.673754029628	2.9628e-08
0	171	1.703502087621	8.7621e-08
0	174	1.761599002034	2.034e-09
0	177	1.803640641785	-3.58215e-07
0	180	1.823975722166	-2.77834e-07
0	183	1.843888221495	2.21495e-07
0	186	1.845705671561	-3.28439e-07
0	189	1.853922909358	-9.0642e-08
0	192	1.877350085974	8.5974e-08
0	195	1.878857751796	-2.48204e-07
0	198	1.883738395665	3.95665e-07
0	201	1.887190106604	1.06604e-07
0	204	1.901024490735	4.90735e-07
0	207	1.913029548154	-4.51846e-07
0	210	1.913129807311	-1.92689e-07
0	213	1.915946966782	-3.3218e-08
0	216	1.966202168214	1.68214e-07
0	219	2.01823031744	3.1744e-07
0	222	2.041194673488	-3.26512e-07
0	225	2.053667440359	4.40359e-07
0	228	2.054915699596	-3.00404e-07
0	231	2.070232018036	1.8036e-08
0	234	2.070762605966	-3.94034e-07
0	237	2.080061632162	-3.67838e-07
0	240	2.086756008724	8.724e-09
0	243	2.094910852518	-1.47482e-07
0	246	2.120659592841	-4.07159e-07
0	249	2.135814104928	1.04928e-07
0	252	2.141003143508	1.43508e-07
0	255	2.141254760325	-2.39675e-07
0	258	2.148286830541	-1.69459e-07
0	261	2.169241381995	3.81995e-07
0	264	2.177720417455	4.17455e-07
0	267	2.18456258825	-4.1175e-07
0	270	2.190346609475	-3.90525e-07
0	273	2.219050236744	2.36744e-07
0	276	2.223553678719	-3.21281e-07
0	279	2.233121768991	-2.31009e-07
0	282	2.244193411246	4.11246e-07
0	285	2.26739989291	-1.0709e-07
0	288	2.285592008615	8.615e-09
0	291	2.296295056818	5.6818e-08
0	294	2.326161665469	-3.34531e-07
0	297	2.372010699101	-3.00899e-07
0	300	2.4483954133	4.133e-07
0	303	2.531072800141	-1.99859e-07
0	306	2.60848691971	-8.029e-08
0	309	2.630294616567	-3.83433e-07
0	312	2.670824067713	6.7713e-08
0	315	2.679938906944	-9.3056e-08
0	318	2.687690061284	6.1284e-08
0	321	2.712515688827	-3.11173e-07
0	324	2.725927192392	1.92392e-07
0	327	2.748282650346	-3.49654e-07
0	330	2.772193408944	4.08944e-07
0	333	2.80471237991	3.7991e-07
0	336	2.813864868599	-1.31401e-07
0	339	2.837327351327	3.51327e-07
0	342	2.85458525531	2.5531e-07
0	345	2.904479390011	3.90011e-07
0	348	2.915114016133	1.6133e-08
0	351	2.915117903799	-9.6201e-08
0	354	2.915204487276	4.87276e-07
0	357	2.919858428976	4.28976e-07
0	360	2.949809723394	-2.76606e-07
0	363	2.957612252468	2.52468e-07
0	366	2.962281475076	4.75076e-07
0	369	3.009018632397	-3.67603e-07
0	372	3.011549850786	-1.49214e-07
0	375	3.021830541175	-4.58825e-07
0	378	3.035417626845	-3.73155e-07
0	381	3.076775008348	8.348e-09
0	384	3.078648140515	1.40515e-07
0	387	3.083652881533	-1.18467e-07
0	390	3.084354087152	8.7152e-08
0	393	3.089988036128	3.6128e-08
0	396	3.105169828561	-1.71439e-07
0	399	3.108085973933	-2.6067e-08
0	402	3.108605232462	2.32462e-07
0	405	3.13280623029	2.3029e-07
0	408	3.138192740082	-2.59918e-07
0	411	3.148530119704	1.19704e-07
0	414	3.176213399414	3.99414e-07
0	417	3.176583658066	-3.41934e-07
0	420	3.188550672168	-3.27832e-07
0	423	3.199053980689	-1.9311e-08
0	426	3.219224963197	-3.6803e-08
0	429	3.227729052491	5.2491e-08
0	432	3.275236540428	-4.59572e-07
0	435	3.29284968609	-3.1391e-07
0	438	3.310187134659	1.34659e-07
0	441	3.340978327114	3.27114e-07
0	444	3.369403368654	3.68654e-07
0	447	3.425019649462	-3.50538e-07
0	450	3.443804924935	-7.5065e-08
0	453	3.549959176313	1.76313e-07
0	456	3.570463620964	-3.79036e-07
0	459	3.611730836379	-1.63621e-07
0	462	3.641651654663	-3.45337e-07
0	465	3.643129791412	-2.08588e-07
0	468	3.643848701427	-2.98573e-07
0	471	3.67226493163	-6.837e-08
0	474	3.69390186877	-1.3123e-07
0	477	3.768465665029	-3.34971e-07
0	480	3.778694531508	-4.68492e-07
0	483	3.787388556311	-4.43689e-07
0	486	3.816195811843	-1.88157e-07
0	489	3.858789218311	2.18311e-07
0	492	3.875721409078	4.09078e-07
0	495	3.887825299521	2.99521e-07
0	498	3.892908018967	1.8967e-08
0	501	3.91535604098	4.098e-08
0	504	3.930548834521	-1.65479e-07
0	507	3.93653913415	1.3415e-07
0	510	3.980498146452	1.46452e-07
0	513	3.98167792405	-7.595e-08
0	516	3.990138732921	-2.67079e-07
0	519	4.004559835186	-1.64814e-07
0	522	4.004884927022	-7.2978e-08
0	525	4.009432160761	1.60761e-07
0	528	4.020804285631	2.85631e-07
0	531	4.025946252141	2.52141e-07
0	534	4.037728623023	-3.76977e-07
0	537	4.054683082924	8.2924e-08
0	540	4.063290017657	1.7657e-08
0	543	4.087743002968	2.968e-09
0	546	4.094186507492	-4.92508e-07
0	549	4.097156052711	5.2711e-08
0	552	4.103989203088	2.03088e-07
0	555	4.116513640293	-3.59707e-07
0	558	4.130979801715	-1.98285e-07
0	561	4.157954542525	-4.57475e-07
0	564	4.165797243825	2.43825e-07
0	567	4.195219042246	4.2246e-08
0	570	4.201039682934	-3.17066e-07
0	573	4.207157671451	-3.28549e-07
0	576	4.233754061722	6.1722e-08
0	579	4.237394340196	3.40196e-07
0	582	4.272624943871	-5.6129e-08
0	585	4.289149507042	-4.92958e-07
0	588	4.294235190609	1.90609e-07
0	591	4.342976421258	4.21258e-07
0	594	4.362740667304	-3.32696e-07
0	597	4.393710852414	-1.47586e-07
0	600	4.476348367286	3.67286e-07
0	603	4.518505378533	3.78533e-07
0	606	4.552584807714	-1.92286e-07
0	609	4.564311488345	4.88345e-07
0	612	4.591898202058	2.02058e-07
0	615	4.598443921841	-7.8159e-08
0	618	4.645055745962	-2.54038e-07
0	621	4.652060399531	3.99531e-07
0	624	4.732861786009	-2.13991e-07
0	627	4.754829877195	-1.22805e-07
0	630	4.770742216474	2.16474e-07
0	633	4.770862870803	-1.29197e-07
0	636	4.819701423822	4.23822e-07
0	639	4.834459910122	-8.9878e-08
0	642	4.898476767727	-2.32273e-07
0	645	4.913506696	-3.04e-07
0	648	4.928090463486	4.63486e-07
0	651	4.942446309374	3.09374e-07
0	654	4.943648526631	-4.73369e-07
0	657	4.945035503525	-4.96475e-07
0	660	4.949516255084	2.55084e-07
0	663	4.956493520643	-4.79357e-07
0	666	4.975412770081	-2.29919e-07
0	669	4.986246538443	-4.61557e-07
0	672	5.004402776808	-2.23192e-07
0	675	5.016083236039	2.36039e-07
0	678	5.02241725144	2.5144e-07
0	681	5.051964067993	6.7993e-08
0	684	5.058492154907	1.54907e-07
0	687	5.058981817914	-1.82086e-07
0	690	5.078599358071	3.58071e-07
0	693	5.091768780025	-2.19975e-07
0	696	5.092819601345	-3.98655e-07
0	699	5.098217018042	1.8042e-08
0	702	5.098418393685	3.93685e-07
0	705	5.112866346119	3.46119e-07
0	708	5.120115607372	-3.92628e-07
0	711	5.120820251945	2.51945e-07
0	714	5.178921512793	-4.87207e-07
0	717	5.203602339002	3.39002e-07
0	720	5.232109183026	1.83026e-07
0	723	5.24764738977	3.8977e-07
0	726	5.249773767636	-2.32364e-07
0	729	5.280843752483	-2.47517e-07
0	732	5.284045870229	-1.29771e-07
0	735	5.288225986715	-1.3285e-08
0	738	5.292888125219	1.25219e-07
0	741	5.31920485911	-1.4089e-07
0	744	5.346978452104	4.52104e-07
0	747	5.435523671283	-3.28717e-07
0	750	5.474093127576	1.27576e-07
0	753	5.51581990025	-9.975e-08
0	756	5.56528100525	5.25e-09
0	759	5.611315730865	-2.69135e-07
0	762	5.615231555467	-4.44533e-07
0	765	5.634936457547	4.57547e-07
0	768	5.648579481478	4.81478e-07
0	771	5.703270151652	1.51652e-07
0	774	5.713454136951	1.36951e-07
0	777	5.733703887508	-1.12492e-07
0	780	5.766673713968	-2.86032e-07
0	783	5.797297987249	-1.2751e-08
0	786	5.817077477276	4.77276e-07
0	789	5.832054457023	4.57023e-07
0	792	5.872366678761	-3.21239e-07
0	795	5.888505077967	7.7967e-08
0	798	5.894325228827	2.28827e-07
0	801	5.905473435158	4.35158e-07
0	804	5.913531512255	-4.87745e-07
0	807	5.933646409166	4.09166e-07
0	810	5.956991807884	-1.92116e-07
0	813	5.971915994027	-5.973e-09
0	816	5.998329878087	-1.21913e-07
0	819	6.010434122244	1.22244e-07
0	822	6.01475728173	2.8173e-07
0	825	6.015619201771	2.01771e-07
0	828	6.018480913388	-8.6612e-08
0	831	6.025586127816	1.27816e-07
0	834	6.041739824786	-1.75214e-07
0	837	6.042091365484	3.65484e-07
0	840	6.057589172153	1.72153e-07
0	843	6.068481131597	1.31597e-07
0	846	6.068534533214	-4.66786e-07
0	849	6.090138114616	1.14616e-07
0	852	6.099806181295	1.81295e-07
0	855	6.134620998567	-1.433e-09
0	858	6.140755782183	-2.17817e-07
0	861	6.145621348917	3.48917e-07
0	864	6.161885376974	3.76974e-07
0	867	6.195084738639	-2.61361e-07
0	870	6.19794179392	-2.0608e-07
0	873	6.198383194907	1.94907e-07
0	876	6.244548138835	1.38835e-07
0	879	6.276247153432	1.53432e-07
0	882	6.285931723145	-2.76855e-07
0	885	6.298147037393	3.7393e-08
0	888	6.298352587456	-4.12544e-07
0	891	6.329216182511	1.82511e-07
0	894	6.36094433791	3.3791e-07
0	897	6.449007476633	4.76633e-07
0	900	6.450395548809	-4.51191e-07
0	903	6.503372340462	3.40462e-07
0	906	6.592243780941	-2.19059e-07
0	909	6.626757891662	-1.08338e-07
0	912	6.664564101072	1.01072e-07
0	915	6.667515318327	3.18327e-07
0	918	6.677439383696	3.83696e-07
0	921	6.685816853075	-1.46925e-07
0	924	6.719576422451	4.22451e-07
0	927	6.74771075053	-2.4947e-07
0	930	6.755112221138	2.21138e-07
0	933	6.766756181045	1.81045e-07
0	936	6.811976861954	-1.38046e-07
0	939	6.865028947267	-5.2733e-08
0	942	6.87000157549	-4.2451e-07
0	945	6.893210893311	-1.06689e-07
0	948	6.894202476461	4.76461e-07
0	951	6.894799157744	1.57744e-07
0	954	6.907935837285	-1.62715e-07
0	957	6.921711984229	-1.5771e-08
0	960	6.942566959281	-4.0719e-08
0	963	6.944735688577	-3.11423e-07
0	966	6.959558870971	-1.29029e-07
0	969	6.966076436359	4.36359e-07
0	972	6.971663154988	1.54988e-07
0	975	7.028747601946	-3.98054e-07
0	978	7.034109185264	1.85264e-07
0	981	7.03569555008	-4.4992e-07
0	984	7.052079781471	-2.18529e-07
0	987	7.057551391283	3.91283e-07
0	990	7.058625582512	-4.17488e-07
0	993	7.063453341276	3.41276e-07
0	996	7.064026629739	-3.70261e-07
0	999	7.074398395093	3.95093e-07
0	1002	7.093292423013	4.23013e-07
0	1005	7.118009223462	2.23462e-07
0	1008	7.131449872768	-1.27232e-07
0	1011	7.165665293531	2.93531e-07
0	1014	7.192076945399	-5.4601e-08
0	1017	7.195764748938	-2.51062e-07
0	1020	7.209897504235	-4.95765e-07
0	1023	7.22013631477	3.1477e-07
0	1026	7.232676733563	-2.66437e-07
0	1029	7.239526931988	-6.8012e-08
0	1032	7.248711992987	-7.013e-09
0	1035	7.322700346028	3.46028e-07
0	1038	7.370024852781	-1.47219e-07
0	1041	7.384231077786	7.7786e-08
0	1044	7.393517004372	4.372e-09
0	1047	7.429098581289	-4.18711e-07
0	1050	7.508169431798	4.31798e-07
0	1053	7.530981807969	-1.92031e-07
0	1056	7.535289870994	-1.29006e-07
0	1059	7.543113909708	-9.0292e-08
0	1062	7.59519843282	4.3282e-07
0	1065	7.635890119011	1.19011e-07
0	1068	7.6616434664	4.664e-07
0	1071	7.665692596045	-4.03955e-07
0	1074	7.717152110347	1.10347e-07
0	1077	7.732572122103	1.22103e-07
0	1080	7.779199857543	-1.42457e-07
0	1083	7.789477657435	-3.42565e-07
0	1086	7.798597998731	-1.269e-09
0	1089	7.828932693973	-3.06027e-07
0	1092	7.833490793594	-2.06406e-07
0	1095	7.867561711743	-2.88257e-07
0	1098	7.868867588928	-4.11072e-07
0	1101	7.882080254239	2.54239e-07
0	1104	7.893350570277	-4.29723e-07
0	1107	7.915309498365	4.98365e-07
0	1110	7.957128027966	2.7966e-08
0	1113	8.002768338705	3.38705e-07
0	1116	8.004672487313	4.87313e-07
0	1119	8.006323329965	3.29965e-07
0	1122	8.021669019573	1.9573e-08
0	1125	8.026646194002	1.94002e-07
0	1128	8.026992691076	-3.08924e-07
0	1131	8.027814515961	-4.84039e-07
0	1134	8.039066147384	1.47384e-07
0	1137	8.04340868378	-3.1622e-07
0	1140	8.046088566353	-4.33647e-07
0	1143	8.065082044201	4.4201e-08
0	1146	8.073986483458	4.83458e-07
0	1149	8.093806392466	3.92466e-07
0	1152	8.101628693845	-3.06155e-07
0	1155	8.117949907482	-9.2518e-08
0	1158	8.122081979552	-2.0448e-08
0	1161	8.145966518251	-4.81749e-07
0	1164	8.169597517932	-4.82068e-07
0	1167	8.19934208258	8.258e-08
0	1170	8.225981251149	2.51149e-07
0	1173	8.228375819139	-1.80861e-07
0	1176	8.247316386085	3.86085e-07
0	1179	8.258644251945	2.51945e-07
0	1182	8.283443989093	-1.0907e-08
0	1185	8.348320723838	-2.76162e-07
0	1188	8.353449451969	4.51969e-07
0	1191	8.371656476846	4.76846e-07
0	1194	8.378813677979	-3.22021e-07
0	1197	8.433937878441	-1.21559e-07
0	1200	8.45339184748	-1.5252e-07
0	1203	8.456468798732	-2.01268e-07
0	1206	8.506823459685	4.59685e-07
0	1209	8.53950899397	-6.03e-09
0	1212	8.601308960933	-3.9067e-08
0	1215	8.666563092405	9.2405e-08
0	1218	8.679246948846	-5.1154e-08
0	1221	8.74945974634	-2.5366e-07
0	1224	8.764909861191	-1.38809e-07
0	1227	8.767386861145	-1.38855e-07
0	1230	8.781463335314	3.35314e-07
0	1233	8.786451590153	-4.09847e-07
0	1236	8.794283613144	-3.86856e-07
0	1239	8.804232479121	4.79121e-07
0	1242	8.82512892424	-7.576e-08
0	1245	8.867468135105	1.35105e-07
0	1248	8.882698237291	2.37291e-07
0	1251	8.907528526987	-4.73013e-07
0	1254	8.914313827596	-1.72404e-07
0	1257	8.921829680539	-3.19461e-07
0	1260	8.94258592194	-7.806e-08
0	1263	8.956851565094	-4.34906e-07
0	1266	8.982714840724	-1.59276e-07
0	1269	8.989222639567	-3.60433e-07
0	1272	8.995815076121	7.6121e-08
0	1275	9.01006664848	-3.5152e-07
0	1278	9.011819732935	-2.67065e-07
0	1281	9.025722529692	-4.70308e-07
0	1284	9.030132160894	1.60894e-07
0	1287	9.061228199024	1.99024e-07
0	1290	9.061287299311	2.99311e-07
0	1293	9.074972205422	2.05422e-07
0	1296	9.082213687152	-3.12848e-07
0	1299	9.085451949715	-5.0285e-08
0	1302	9.12221873193	-2.6807e-07
0	1305	9.135307236714	2.36714e-07
0	1308	9.136722832964	-1.67036e-07
0	1311	9.15312461639	-3.8361e-07
0	1314	9.169147681864	-3.18136e-07
0	1317	9.211834032368	3.2368e-08
0	1320	9.21507311752	1.1752e-07
0	1323	9.219129476184	4.76184e-07
0	1326	9.233106486312	4.86312e-07
0	1329	9.282683247375	2.47375e-07
0	1332	9.28791797622	-2.378e-08
0	1335	9.295640686202	-3.13798e-07
0	1338	9.35645115343	1.5343e-07
0	1341	9.374728067033	6.7033e-08
0	1344	9.415611516358	-4.83642e-07
0	1347	9.455022942741	-5.7259e-08
0	1350	9.459356890246	-1.09754e-07
0	1353	9.517617371445	3.71445e-07
0	1356	9.53186831218	3.1218e-07
0	1359	9.532239538478	-4.61522e-07
0	1362	9.564337564818	-4.35182e-07
0	1365	9.667006359017	3.59017e-07
0	1368	9.676854769745	-2.30255e-07
0	1371	9.6775490765	7.65e-08
0	1374	9.707987426733	4.26733e-07
0	1377	9.712193535827	-4.64173e-07
0	1380	9.71854551076	-4.8924e-07
0	1383	9.723338407186	4.07186e-07
0	1386	9.734788718772	-2.81228e-07
0	1389	9.790885064798	6.4798e-08
0	1392	9.814371910876	-8.9124e-08
0	1395	9.815118116419	1.16419e-07
0	1398	9.828938270221	2.70221e-07
0	1401	9.865496144166	1.44166e-07
0	1404	9.874417169254	1.69254e-07
0	1407	9.92446400458	4.58e-09
0	1410	9.949612006918	6.918e-09
0	1413	9.957218718809	-2.81191e-07
0	1416	9.963809109713	1.09713e-07
0	1419	9.969086744682	-2.55318e-07
0	1422	9.976081286929	2.86929e-07

