version 3
run NoSec20_record-0-20250829-01:43:57-79465
attr configname NoSec20_record
attr datetime 20250829-01:43:57
attr datetimef 20250829-014357
attr experiment NoSec20_record
attr inifile run_record.ini
attr iterationvars ""
attr iterationvarsd ""
attr iterationvarsf ""
attr measurement ""
attr network ned.LightIoTNetwork
attr processid 79465
attr repetition 0
attr replication #0
attr resultdir results
attr runnumber 0
attr seedset 1
config output-scalar-file results/NoSec20_record-rep1.sca
config output-vector-file results/NoSec20_record-rep1.vec
config seed-set 1
config network ned.LightIoTNetwork
config output-scalar-file results/NoSec20_record-0.sca
config output-vector-file results/NoSec20_record-0.vec
config **.scalar-recording true
config **.vector-recording true
config **.result-recording-modes all
config LightIoTNetwork.numSensorNodes 20
config **.fakeNode.enabled false
config **.gateway.securityEnabled false
config **.gateway.procDelay 0s
config **.gateway.costForward_mJ 5
config **.gateway.costVerify_mJ 0
config **.gateway.batteryInit_mJ 5000
config sim-time-limit 10s
config description "Secure Mode Simulation (includes all scenarios)"
config network ned.LightIoTNetwork
config ned-path .
config sim-time-limit 10s
config record-eventlog true
config cmdenv-express-mode false
config network ned.LightIoTNetwork
config sim-time-limit 10s
config output-scalar-file results/secure_output.sca
config output-vector-file results/secure_output.vec
config network LightIoTNetwork
config sim-time-limit 10s
config output-scalar-file results/nosecure_output.sca
config output-vector-file results/nosecure_output.vec
config network LightIoTNetwork
config sim-time-limit 10s
config output-scalar-file results/attack_output.sca
config output-vector-file results/attack_output.vec
config output-scalar-file results/NoSec20_record-0.sca
config output-vector-file results/NoSec20_record-0.vec
config **.scalar-recording true
config **.vector-recording true
config **.statistic-recording true
config **.result-recording-modes all
config rng-class cMersenneTwister
config num-rngs 1
config seed-set 123

vector 0 LightIoTNetwork.cloud EndToEndDelay_s ETV
0	3	0.50011438108	3.8108e-07
0	6	0.592338595539	-4.04461e-07
0	9	0.628124447772	4.47772e-07
0	12	0.646755892551	-1.07449e-07
0	15	0.686260211281	2.11281e-07
0	18	0.736088976264	-2.3736e-08
0	21	0.80233256775	-4.3225e-07
0	24	0.84556072508	-2.7492e-07
0	27	0.887910740217	-2.59783e-07
0	30	0.896580726141	-2.73859e-07
0	33	0.896767468657	4.68657e-07
0	36	0.917021998437	-1.563e-09
0	39	1.038816731889	-2.68111e-07
0	42	1.169746040367	4.0367e-08
0	45	1.220324489288	4.89288e-07
0	48	1.346310918219	-8.1781e-08
0	51	1.4325573612	3.612e-07
0	54	1.435539072612	7.2612e-08
0	57	1.483953284891	2.84891e-07
0	60	1.497184808133	-1.91867e-07
0	63	1.499040515395	-4.84605e-07
0	66	1.554993298137	2.98137e-07
0	69	1.627150661079	-3.38921e-07
0	72	1.651665525092	-4.74908e-07
0	75	1.665168347908	3.47908e-07
0	78	1.724779555015	-4.44985e-07
0	81	1.791476169089	1.69089e-07
0	84	1.793388259411	2.59411e-07
0	87	1.877956055152	5.5152e-08
0	90	1.903463507583	-4.92417e-07
0	93	1.930860970169	-2.9831e-08
0	96	1.999814402917	4.02917e-07
0	99	2.022277692752	-3.07248e-07
0	102	2.161187002203	2.203e-09
0	105	2.232062454754	4.54754e-07
0	108	2.332450632238	-3.67762e-07
0	111	2.360634748591	-2.51409e-07
0	114	2.423573581548	-4.18452e-07
0	117	2.523364631599	-3.68401e-07
0	120	2.552862655232	-3.44768e-07
0	123	2.559189428669	4.28669e-07
0	126	2.598187400307	4.00307e-07
0	129	2.627853184845	1.84845e-07
0	132	2.643339717062	-2.82938e-07
0	135	2.712217025738	2.5738e-08
0	138	2.720802975446	-2.4554e-08
0	141	2.797018769058	-2.30942e-07
0	144	2.829940692475	-3.07525e-07
0	147	2.939286534162	-4.65838e-07
0	150	2.953233884369	-1.15631e-07
0	153	2.976467556646	-4.43354e-07
0	156	3.009782302938	3.02938e-07
0	159	3.065643785055	-2.14945e-07
0	162	3.139873411599	4.11599e-07
0	165	3.227107675141	-3.24859e-07
0	168	3.287060627713	-3.72287e-07
0	171	3.294600833114	-1.66886e-07
0	174	3.335422220965	2.20965e-07
0	177	3.478858795949	-2.04051e-07
0	180	3.586968263472	2.63472e-07
0	183	3.59899313245	1.3245e-07
0	186	3.612074708985	-2.91015e-07
0	189	3.616800503665	-4.96335e-07
0	192	3.677670535398	-4.64602e-07
0	195	3.703160551237	-4.48763e-07
0	198	3.769450871181	-1.28819e-07
0	201	3.803651826922	-1.73078e-07
0	204	3.803794932132	-6.7868e-08
0	207	3.911159813126	-1.86874e-07
0	210	3.938206329522	3.29522e-07
0	213	3.939570683427	-3.16573e-07
0	216	3.977661956707	-4.3293e-08
0	219	4.102943969983	-3.0017e-08
0	222	4.196536306105	3.06105e-07
0	225	4.198258489137	4.89137e-07
0	228	4.242256482969	4.82969e-07
0	231	4.269568396731	3.96731e-07
0	234	4.294032809837	-1.90163e-07
0	237	4.528887658427	-3.41573e-07
0	240	4.611774260132	2.60132e-07
0	243	4.637369595095	-4.04905e-07
0	246	4.644201853918	-1.46082e-07
0	249	4.659249349684	3.49684e-07
0	252	4.666433634282	-3.65718e-07
0	255	4.696765349945	3.49945e-07
0	258	4.748219841811	-1.58189e-07
0	261	4.758677771315	-2.28685e-07
0	264	4.831805015543	1.5543e-08
0	267	4.852879164367	1.64367e-07
0	270	4.861507693352	-3.06648e-07
0	273	4.929149388335	3.88335e-07
0	276	4.971509661665	-3.38335e-07
0	279	5.115770757896	-2.42104e-07
0	282	5.156981317792	3.17792e-07
0	285	5.184663070877	7.0877e-08
0	288	5.21793090459	-9.541e-08
0	291	5.227123465341	4.65341e-07
0	294	5.322930517233	-4.82767e-07
0	297	5.454893372255	3.72255e-07
0	300	5.541242986777	-1.3223e-08
0	303	5.56092645498	4.5498e-07
0	306	5.616734136735	1.36735e-07
0	309	5.639090972161	-2.7839e-08
0	312	5.695016455791	4.55791e-07
0	315	5.711787102837	1.02837e-07
0	318	5.749805901152	-9.8848e-08
0	321	5.791591037718	3.7718e-08
0	324	5.830309517774	-4.82226e-07
0	327	5.839821897214	-1.02786e-07
0	330	5.851193796423	-2.03577e-07
0	333	5.878385518119	-4.81881e-07
0	336	5.984692067373	6.7373e-08
0	339	6.114008785318	-2.14682e-07
0	342	6.130594279244	2.79244e-07
0	345	6.179768981459	-1.8541e-08
0	348	6.244984572798	-4.27202e-07
0	351	6.27512631351	3.1351e-07
0	354	6.30923803635	3.635e-08
0	357	6.481393341068	3.41068e-07
0	360	6.487446071067	7.1067e-08
0	363	6.494845044567	4.4567e-08
0	366	6.62190216938	1.6938e-07
0	369	6.62342383531	-1.6469e-07
0	372	6.748417819849	-1.80151e-07
0	375	6.74981258898	-4.1102e-07
0	378	6.750667134439	1.34439e-07
0	381	6.774426890958	-1.09042e-07
0	384	6.785004082509	8.2509e-08
0	387	6.838429619464	-3.80536e-07
0	390	6.88556479984	-2.0016e-07
0	393	6.893761212378	2.12378e-07
0	396	6.904290817863	-1.82137e-07
0	399	7.058587503293	-4.96707e-07
0	402	7.146767715085	-2.84915e-07
0	405	7.182746802969	-1.97031e-07
0	408	7.21519830837	3.0837e-07
0	411	7.303465288643	2.88643e-07
0	414	7.364045265223	2.65223e-07
0	417	7.49870434883	3.4883e-07
0	420	7.550918775844	-2.24156e-07
0	423	7.564071165397	1.65397e-07
0	426	7.575525427145	4.27145e-07
0	429	7.630059807701	-1.92299e-07
0	432	7.67766785766	-1.4234e-07
0	435	7.738013856438	-1.43562e-07
0	438	7.760520951544	-4.8456e-08
0	441	7.817964986245	-1.3755e-08
0	444	7.826832051155	5.1155e-08
0	447	7.829094308148	3.08148e-07
0	450	7.835905149069	1.49069e-07
0	453	7.893249738776	-2.61224e-07
0	456	7.934750593499	-4.06501e-07
0	459	8.119019919773	-8.0227e-08
0	462	8.14408921902	2.1902e-07
0	465	8.152299974812	-2.5188e-08
0	468	8.229400020792	2.0792e-08
0	471	8.353627709158	-2.90842e-07
0	474	8.391612560953	-4.39047e-07
0	477	8.476181752002	-2.47998e-07
0	480	8.543903946317	-5.3683e-08
0	483	8.613566345071	3.45071e-07
0	486	8.640732383681	3.83681e-07
0	489	8.654794248939	2.48939e-07
0	492	8.707217736822	-2.63178e-07
0	495	8.731308769901	-2.30099e-07
0	498	8.783079886901	-1.13099e-07
0	501	8.787744653969	-3.46031e-07
0	504	8.78820234388	3.4388e-07
0	507	8.807211492446	4.92446e-07
0	510	8.8794786626	-3.374e-07
0	513	8.972426981852	-1.8148e-08
0	516	8.985308263543	2.63543e-07
0	519	9.104638157831	1.57831e-07
0	522	9.131733859657	-1.40343e-07
0	525	9.220357584813	-4.15187e-07
0	528	9.245267984643	-1.5357e-08
0	531	9.386316008818	8.818e-09
0	534	9.391234374837	3.74837e-07
0	537	9.458662348519	3.48519e-07
0	540	9.50052089598	-1.0402e-07
0	543	9.536515539048	-4.60952e-07
0	546	9.620031202212	2.02212e-07
0	549	9.698122678464	-3.21536e-07
0	552	9.721291196533	1.96533e-07
0	555	9.744692100911	1.00911e-07
0	558	9.754141959547	-4.0453e-08
0	561	9.78883885327	-1.4673e-07
0	564	9.803422575443	-4.24557e-07
0	567	9.855439320625	3.20625e-07
0	570	9.876569733442	-2.66558e-07
0	573	9.919832377043	3.77043e-07

