version 3
run NoSec50_record-0-20250829-01:43:57-79633
attr configname NoSec50_record
attr datetime 20250829-01:43:57
attr datetimef 20250829-014357
attr experiment NoSec50_record
attr inifile run_record.ini
attr iterationvars ""
attr iterationvarsd ""
attr iterationvarsf ""
attr measurement ""
attr network ned.LightIoTNetwork
attr processid 79633
attr repetition 0
attr replication #0
attr resultdir results
attr runnumber 0
attr seedset 0
config output-scalar-file results/NoSec50_record-rep0.sca
config output-vector-file results/NoSec50_record-rep0.vec
config seed-set 0
config network ned.LightIoTNetwork
config output-scalar-file results/NoSec50_record-0.sca
config output-vector-file results/NoSec50_record-0.vec
config **.scalar-recording true
config **.vector-recording true
config **.result-recording-modes all
config LightIoTNetwork.numSensorNodes 50
config **.fakeNode.enabled false
config **.gateway.securityEnabled false
config **.gateway.procDelay 0s
config **.gateway.costForward_mJ 5
config **.gateway.costVerify_mJ 0
config **.gateway.batteryInit_mJ 5000
config sim-time-limit 10s
config description "Secure Mode Simulation (includes all scenarios)"
config network ned.LightIoTNetwork
config ned-path .
config sim-time-limit 10s
config record-eventlog true
config cmdenv-express-mode false
config network ned.LightIoTNetwork
config sim-time-limit 10s
config output-scalar-file results/secure_output.sca
config output-vector-file results/secure_output.vec
config network LightIoTNetwork
config sim-time-limit 10s
config output-scalar-file results/nosecure_output.sca
config output-vector-file results/nosecure_output.vec
config network LightIoTNetwork
config sim-time-limit 10s
config output-scalar-file results/attack_output.sca
config output-vector-file results/attack_output.vec
config output-scalar-file results/NoSec50_record-0.sca
config output-vector-file results/NoSec50_record-0.vec
config **.scalar-recording true
config **.vector-recording true
config **.statistic-recording true
config **.result-recording-modes all
config rng-class cMersenneTwister
config num-rngs 1
config seed-set 123

vector 0 LightIoTNetwork.cloud EndToEndDelay_s ETV
0	3	0.52021839912	3.9912e-07
0	6	0.556712975726	-2.4274e-08
0	9	0.571036058711	5.8711e-08
0	12	0.587129296968	2.96968e-07
0	15	0.618274423759	4.23759e-07
0	18	0.640350777423	-2.22577e-07
0	21	0.772656294517	2.94517e-07
0	24	0.797534605255	-3.94745e-07
0	27	0.837396161631	1.61631e-07
0	30	0.868241537362	-4.62638e-07
0	33	0.88344152132	-4.7868e-07
0	36	0.884381708223	-2.91777e-07
0	39	0.892784793163	-2.06837e-07
0	42	0.923654796788	-2.03212e-07
0	45	0.937587209977	2.09977e-07
0	48	0.961479362799	3.62799e-07
0	51	0.973608040018	4.0018e-08
0	54	0.977665111655	1.11655e-07
0	57	0.979977171402	1.71402e-07
0	60	1.020477480488	4.80488e-07
0	63	1.028894921532	-7.8468e-08
0	66	1.044883177383	1.77383e-07
0	69	1.048813502304	-4.97696e-07
0	72	1.068044563755	-4.36245e-07
0	75	1.092844616389	-3.83611e-07
0	78	1.102763370378	3.70378e-07
0	81	1.123563696397	-3.03603e-07
0	84	1.145894115092	1.15092e-07
0	87	1.148171876557	-1.23443e-07
0	90	1.178879533662	-4.66338e-07
0	93	1.215189364972	3.64972e-07
0	96	1.220632651588	-3.48412e-07
0	99	1.278156756889	-2.43111e-07
0	102	1.280529175652	1.75652e-07
0	105	1.291725033429	3.3429e-08
0	108	1.299158563837	-4.36163e-07
0	111	1.300910752499	-2.47501e-07
0	114	1.312168726465	-2.73535e-07
0	117	1.33261984284	-1.5716e-07
0	120	1.336078768829	-2.31171e-07
0	123	1.34426574409	-2.5591e-07
0	126	1.347251737257	-2.62743e-07
0	129	1.357945619849	-3.80151e-07
0	132	1.370012145257	1.45257e-07
0	135	1.370087251067	2.51067e-07
0	138	1.391773001757	1.757e-09
0	141	1.425596633228	-3.66772e-07
0	144	1.457155154319	1.54319e-07
0	147	1.463662764058	-2.35942e-07
0	150	1.478618342895	3.42895e-07
0	153	1.499706715811	-2.84189e-07
0	156	1.548202602518	-3.97482e-07
0	159	1.573116933974	-6.6026e-08
0	162	1.594603942614	-5.7386e-08
0	165	1.69207390151	-9.849e-08
0	168	1.707208207482	2.07482e-07
0	171	1.71871612654	1.2654e-07
0	174	1.777025960153	-3.9847e-08
0	177	1.820328549855	-4.50145e-07
0	180	1.821648177132	1.77132e-07
0	183	1.836352643603	-3.56397e-07
0	186	1.862961621908	-3.78092e-07
0	189	1.883735131006	1.31006e-07
0	192	1.904708746308	-2.53692e-07
0	195	1.904789434141	4.34141e-07
0	198	1.928817277169	2.77169e-07
0	201	1.947631530464	-4.69536e-07
0	204	1.971038432372	4.32372e-07
0	207	1.97481815014	1.5014e-07
0	210	1.985305681313	-3.18687e-07
0	213	1.987294829683	-1.70317e-07
0	216	2.012508840859	-1.59141e-07
0	219	2.052422021702	2.1702e-08
0	222	2.071232646797	-3.53203e-07
0	225	2.080061165989	1.65989e-07
0	228	2.116231416119	4.16119e-07
0	231	2.168869531574	-4.68426e-07
0	234	2.184535936126	-6.3874e-08
0	237	2.187090945384	-5.4616e-08
0	240	2.212313311453	3.11453e-07
0	243	2.212955845799	-1.54201e-07
0	246	2.219014634145	-3.65855e-07
0	249	2.226413809368	-1.90632e-07
0	252	2.243245343957	3.43957e-07
0	255	2.265563147422	1.47422e-07
0	258	2.281433654483	-3.45517e-07
0	261	2.295872510737	-4.89263e-07
0	264	2.300022132182	1.32182e-07
0	267	2.331251272513	2.72513e-07
0	270	2.341642579297	-4.20703e-07
0	273	2.360998891294	-1.08706e-07
0	276	2.365973185096	1.85096e-07
0	279	2.366706775269	-2.24731e-07
0	282	2.37839331883	3.1883e-07
0	285	2.388682303159	3.03159e-07
0	288	2.406130540185	-4.59815e-07
0	291	2.43640491874	-8.126e-08
0	294	2.441910229531	2.29531e-07
0	297	2.443627788406	-2.11594e-07
0	300	2.455887687625	-3.12375e-07
0	303	2.47872128766	2.8766e-07
0	306	2.513746071001	7.1001e-08
0	309	2.560837236653	2.36653e-07
0	312	2.621458753245	-2.46755e-07
0	315	2.639125087903	8.7903e-08
0	318	2.762103901571	-9.8429e-08
0	321	2.768614545837	-4.54163e-07
0	324	2.789748667879	-3.32121e-07
0	327	2.798998061334	6.1334e-08
0	330	2.807584023941	2.3941e-08
0	333	2.848659952544	-4.7456e-08
0	336	2.855447754404	-2.45596e-07
0	339	2.911690994771	-5.229e-09
0	342	2.914356795418	-2.04582e-07
0	345	2.919088746979	-2.53021e-07
0	348	2.92107881275	-1.8725e-07
0	351	2.923703267751	2.67751e-07
0	354	2.940893685026	-3.14974e-07
0	357	2.962021535029	-4.64971e-07
0	360	2.965977933397	-6.6603e-08
0	363	2.974497049535	4.9535e-08
0	366	2.980110364361	3.64361e-07
0	369	3.010007702513	-2.97487e-07
0	372	3.079671765072	-2.34928e-07
0	375	3.096506121476	1.21476e-07
0	378	3.106183111249	1.11249e-07
0	381	3.111327084387	8.4387e-08
0	384	3.126407416724	4.16724e-07
0	387	3.145959672332	-3.27668e-07
0	390	3.184983401652	4.01652e-07
0	393	3.186700878944	-1.21056e-07
0	396	3.240205032471	3.2471e-08
0	399	3.250470952737	-4.7263e-08
0	402	3.251520007755	7.755e-09
0	405	3.29061245555	4.5555e-07
0	408	3.302227521733	-4.78267e-07
0	411	3.306002873135	-1.26865e-07
0	414	3.317273478769	4.78769e-07
0	417	3.334754058392	5.8392e-08
0	420	3.359885222092	2.22092e-07
0	423	3.360437014932	1.4932e-08
0	426	3.363461492071	4.92071e-07
0	429	3.380318193184	1.93184e-07
0	432	3.386558845453	-1.54547e-07
0	435	3.432142072311	7.2311e-08
0	438	3.436031579087	-4.20913e-07
0	441	3.441611878807	-1.21193e-07
0	444	3.456290784338	-2.15662e-07
0	447	3.457374022343	2.2343e-08
0	450	3.484034521319	-4.78681e-07
0	453	3.491480504675	-4.95325e-07
0	456	3.502088255295	2.55295e-07
0	459	3.517398628547	-3.71453e-07
0	462	3.563164400821	4.00821e-07
0	465	3.717376099341	9.9341e-08
0	468	3.722743604192	-3.95808e-07
0	471	3.727842585696	-4.14304e-07
0	474	3.733992795367	-2.04633e-07
0	477	3.785927375127	3.75127e-07
0	480	3.812256587204	-4.12796e-07
0	483	3.831918247183	2.47183e-07
0	486	3.845316261192	2.61192e-07
0	489	3.864443239383	2.39383e-07
0	492	3.894543592445	-4.07555e-07
0	495	3.927574947756	-5.2244e-08
0	498	3.931542933034	-6.6966e-08
0	501	3.953931458155	4.58155e-07
0	504	3.962197691621	-3.08379e-07
0	507	3.975341824721	-1.75279e-07
0	510	3.981904156553	1.56553e-07
0	513	3.998003889992	-1.10008e-07
0	516	4.014657313098	3.13098e-07
0	519	4.015294222674	2.22674e-07
0	522	4.038998446194	4.46194e-07
0	525	4.043029914052	-8.5948e-08
0	528	4.126516383421	3.83421e-07
0	531	4.140527114458	1.14458e-07
0	534	4.14207637282	3.7282e-07
0	537	4.150414669933	-3.30067e-07
0	540	4.163016356388	3.56388e-07
0	543	4.190414633649	-3.66351e-07
0	546	4.216972027951	2.7951e-08
0	549	4.231818911899	-8.8101e-08
0	552	4.283953027987	2.7987e-08
0	555	4.292635276587	2.76587e-07
0	558	4.297075287625	2.87625e-07
0	561	4.312831254955	2.54955e-07
0	564	4.319988423585	4.23585e-07
0	567	4.331662349448	3.49448e-07
0	570	4.33616358242	-4.1758e-07
0	573	4.343025642401	-3.57599e-07
0	576	4.349268312705	3.12705e-07
0	579	4.35831311876	1.1876e-07
0	582	4.369019671204	-3.28796e-07
0	585	4.385550703202	-2.96798e-07
0	588	4.397123142285	1.42285e-07
0	591	4.397620779788	-2.20212e-07
0	594	4.413322873972	-1.26028e-07
0	597	4.430252403486	4.03486e-07
0	600	4.471400222276	2.22276e-07
0	603	4.507399884472	-1.15528e-07
0	606	4.51601193617	-6.383e-08
0	609	4.527043812536	-1.87464e-07
0	612	4.60391185698	-1.4302e-07
0	615	4.68043889068	-1.0932e-07
0	618	4.720650408138	4.08138e-07
0	621	4.735678003077	3.077e-09
0	624	4.764414903429	-9.6571e-08
0	627	4.820280294679	2.94679e-07
0	630	4.824535916838	-8.3162e-08
0	633	4.847149714361	-2.85639e-07
0	636	4.863477925491	-7.4509e-08
0	639	4.882851624675	-3.75325e-07
0	642	4.898547784286	-2.15714e-07
0	645	4.942025328055	3.28055e-07
0	648	4.959327149065	1.49065e-07
0	651	4.973751270305	2.70305e-07
0	654	4.987428965698	-3.4302e-08
0	657	5.00449685948	-1.4052e-07
0	660	5.01791527113	2.7113e-07
0	663	5.040508577786	-4.22214e-07
0	666	5.049756765412	-2.34588e-07
0	669	5.06589162657	-3.7343e-07
0	672	5.082925769548	-2.30452e-07
0	675	5.084575955896	-4.4104e-08
0	678	5.10001450479	-4.9521e-07
0	681	5.134712630976	-3.69024e-07
0	684	5.145380384754	3.84754e-07
0	687	5.169715781417	-2.18583e-07
0	690	5.195481113344	1.13344e-07
0	693	5.213174233865	2.33865e-07
0	696	5.233912282997	2.82997e-07
0	699	5.25205984339	-1.5661e-07
0	702	5.259718954051	-4.5949e-08
0	705	5.308039552067	-4.47933e-07
0	708	5.308889851765	-1.48235e-07
0	711	5.343229746911	-2.53089e-07
0	714	5.353856599098	-4.00902e-07
0	717	5.358577995375	-4.625e-09
0	720	5.370168667751	-3.32249e-07
0	723	5.375660921541	-7.8459e-08
0	726	5.381201995536	-4.464e-09
0	729	5.388076498686	4.98686e-07
0	732	5.389178326865	3.26865e-07
0	735	5.392296732403	-2.67597e-07
0	738	5.413071667309	-3.32691e-07
0	741	5.415023412276	4.12276e-07
0	744	5.426418819092	-1.80908e-07
0	747	5.430882452661	4.52661e-07
0	750	5.476767431154	4.31154e-07
0	753	5.495161934477	-6.5523e-08
0	756	5.51098544048	4.4048e-07
0	759	5.528678527847	-4.72153e-07
0	762	5.597938294661	2.94661e-07
0	765	5.640753853926	-1.46074e-07
0	768	5.722013104195	1.04195e-07
0	771	5.763865314844	3.14844e-07
0	774	5.767712710752	-2.89248e-07
0	777	5.778295816667	-1.83333e-07
0	780	5.801228362042	3.62042e-07
0	783	5.868605364393	3.64393e-07
0	786	5.869120141771	1.41771e-07
0	789	5.870752799743	-2.00257e-07
0	792	5.879899821058	-1.78942e-07
0	795	5.90590374302	-2.5698e-07
0	798	5.913311892702	-1.07298e-07
0	801	5.933407735871	-2.64129e-07
0	804	5.974238222512	2.22512e-07
0	807	5.988724604017	-3.95983e-07
0	810	5.989650788299	-2.11701e-07
0	813	6.018489841791	-1.58209e-07
0	816	6.058683130378	1.30378e-07
0	819	6.060120016429	1.6429e-08
0	822	6.080756677733	-3.22267e-07
0	825	6.109579833503	-1.66497e-07
0	828	6.115216118982	1.18982e-07
0	831	6.139733649883	-3.50117e-07
0	834	6.155999468314	4.68314e-07
0	837	6.162165063574	6.3574e-08
0	840	6.165133285848	2.85848e-07
0	843	6.179170939373	-6.0627e-08
0	846	6.193806857988	-1.42012e-07
0	849	6.22557221772	2.1772e-07
0	852	6.292483553523	-4.46477e-07
0	855	6.295212535933	-4.64067e-07
0	858	6.305924784811	-2.15189e-07
0	861	6.308121876	-1.24e-07
0	864	6.309092143829	1.43829e-07
0	867	6.370787230273	2.30273e-07
0	870	6.37757317121	1.7121e-07
0	873	6.383533999416	-5.84e-10
0	876	6.405698298848	2.98848e-07
0	879	6.416438638653	-3.61347e-07
0	882	6.419816793734	-2.06266e-07
0	885	6.420268653426	-3.46574e-07
0	888	6.421614418551	4.18551e-07
0	891	6.425051595411	-4.04589e-07
0	894	6.457871671952	-3.28048e-07
0	897	6.476193254999	2.54999e-07
0	900	6.505450171557	1.71557e-07
0	903	6.530651853233	-1.46767e-07
0	906	6.544995457121	4.57121e-07
0	909	6.573252440197	4.40197e-07
0	912	6.591914989332	-1.0668e-08
0	915	6.602303739963	-2.60037e-07
0	918	6.701082214341	2.14341e-07
0	921	6.703059813147	-1.86853e-07
0	924	6.723676194251	1.94251e-07
0	927	6.786977228337	2.28337e-07
0	930	6.841306409334	4.09334e-07
0	933	6.857038565678	-4.34322e-07
0	936	6.862179165939	1.65939e-07
0	939	6.880882699788	-3.00212e-07
0	942	6.902558002063	2.063e-09
0	945	6.914844395406	3.95406e-07
0	948	6.919723891885	-1.08115e-07
0	951	6.932216591806	-4.08194e-07
0	954	6.938207009853	9.853e-09
0	957	6.94210680034	-1.9966e-07
0	960	7.02533374154	-2.5846e-07
0	963	7.03334128093	2.8093e-07
0	966	7.050828552478	-4.47522e-07
0	969	7.057975596283	-4.03717e-07
0	972	7.064771751267	-2.48733e-07
0	975	7.068458879739	-1.20261e-07
0	978	7.086165779644	-2.20356e-07
0	981	7.127915034023	3.4023e-08
0	984	7.129098688253	-3.11747e-07
0	987	7.139955326309	3.26309e-07
0	990	7.153990954532	-4.5468e-08
0	993	7.213010115083	1.15083e-07
0	996	7.250331607973	-3.92027e-07
0	999	7.257269365993	3.65993e-07
0	1002	7.267208147748	1.47748e-07
0	1005	7.305113165778	1.65778e-07
0	1008	7.327306235862	2.35862e-07
0	1011	7.328755954235	-4.5765e-08
0	1014	7.345453934417	-6.5583e-08
0	1017	7.345465893112	-1.06888e-07
0	1020	7.354119988345	-1.1655e-08
0	1023	7.357512472151	4.72151e-07
0	1026	7.359091993374	-6.626e-09
0	1029	7.36026795851	-4.149e-08
0	1032	7.387613817025	-1.82975e-07
0	1035	7.38774132002	3.2002e-07
0	1038	7.392068990506	-9.494e-09
0	1041	7.394749488961	4.88961e-07
0	1044	7.403608087263	8.7263e-08
0	1047	7.475436789775	-2.10225e-07
0	1050	7.498140366793	3.66793e-07
0	1053	7.534932795492	-2.04508e-07
0	1056	7.542322775907	-2.24093e-07
0	1059	7.619910049532	4.9532e-08
0	1062	7.68073893953	-6.047e-08
0	1065	7.687919998495	-1.505e-09
0	1068	7.693345013122	1.3122e-08
0	1071	7.722732787859	-2.12141e-07
0	1074	7.743007276813	2.76813e-07
0	1077	7.743942693015	-3.06985e-07
0	1080	7.789977396978	3.96978e-07
0	1083	7.812632013812	1.3812e-08
0	1086	7.862184424698	4.24698e-07
0	1089	7.879795154788	1.54788e-07
0	1092	7.898035258941	2.58941e-07
0	1095	7.90517838113	3.8113e-07
0	1098	7.930290112458	1.12458e-07
0	1101	7.959543507406	-4.92594e-07
0	1104	7.978786248341	2.48341e-07
0	1107	8.028949600691	-3.99309e-07
0	1110	8.036686288984	2.88984e-07
0	1113	8.056134471437	4.71437e-07
0	1116	8.06510215574	1.5574e-07
0	1119	8.086440875288	-1.24712e-07
0	1122	8.086646676109	-3.23891e-07
0	1125	8.102344325417	3.25417e-07
0	1128	8.136334629032	-3.70968e-07
0	1131	8.137628039763	3.9763e-08
0	1134	8.164839441747	4.41747e-07
0	1137	8.173939439281	4.39281e-07
0	1140	8.19265432856	3.2856e-07
0	1143	8.19280970837	-2.9163e-07
0	1146	8.199238116807	1.16807e-07
0	1149	8.211696792441	-2.07559e-07
0	1152	8.221996641393	-3.58607e-07
0	1155	8.242351766861	-2.33139e-07
0	1158	8.271056109435	1.09435e-07
0	1161	8.305750884348	-1.15652e-07
0	1164	8.306355321454	3.21454e-07
0	1167	8.309128103917	1.03917e-07
0	1170	8.314891754183	-2.45817e-07
0	1173	8.338612616573	-3.83427e-07
0	1176	8.344541795971	-2.04029e-07
0	1179	8.355604232522	2.32522e-07
0	1182	8.359368640789	-3.59211e-07
0	1185	8.393376052426	5.2426e-08
0	1188	8.417630431942	4.31942e-07
0	1191	8.423722755862	-2.44138e-07
0	1194	8.453139330353	3.30353e-07
0	1197	8.462320115557	1.15557e-07
0	1200	8.495707907992	-9.2008e-08
0	1203	8.497291970857	-2.9143e-08
0	1206	8.618523687636	-3.12364e-07
0	1209	8.64887843877	4.3877e-07
0	1212	8.658653523354	-4.76646e-07
0	1215	8.659178746678	-2.53322e-07
0	1218	8.663470365945	3.65945e-07
0	1221	8.716876596958	-4.03042e-07
0	1224	8.726081939974	-6.0026e-08
0	1227	8.751507032197	3.2197e-08
0	1230	8.77601981759	-1.8241e-07
0	1233	8.860900113592	1.13592e-07
0	1236	8.893754524227	-4.75773e-07
0	1239	8.895917749032	-2.50968e-07
0	1242	8.910951333167	3.33167e-07
0	1245	8.915673709939	-2.90061e-07
0	1248	8.965706427721	4.27721e-07
0	1251	8.966859349142	3.49142e-07
0	1254	9.000195260532	2.60532e-07
0	1257	9.029820271488	2.71488e-07
0	1260	9.059001593246	-4.06754e-07
0	1263	9.077849600789	-3.99211e-07
0	1266	9.07806964023	-3.5977e-07
0	1269	9.079625675547	-3.24453e-07
0	1272	9.090292515372	-4.84628e-07
0	1275	9.092283525922	-4.74078e-07
0	1278	9.108283858746	-1.41254e-07
0	1281	9.13495996613	-3.387e-08
0	1284	9.138498193165	1.93165e-07
0	1287	9.154202260636	2.60636e-07
0	1290	9.175700221397	2.21397e-07
0	1293	9.217618246797	2.46797e-07
0	1296	9.219044545106	-4.54894e-07
0	1299	9.244485438755	4.38755e-07
0	1302	9.244552866044	-1.33956e-07
0	1305	9.271291915979	-8.4021e-08
0	1308	9.275555197616	1.97616e-07
0	1311	9.300213029376	2.9376e-08
0	1314	9.302881636844	-3.63156e-07
0	1317	9.318833992629	-7.371e-09
0	1320	9.32174068489	-3.1511e-07
0	1323	9.323414307832	3.07832e-07
0	1326	9.348084459081	4.59081e-07
0	1329	9.364408986362	-1.3638e-08
0	1332	9.375337795447	-2.04553e-07
0	1335	9.399447304197	3.04197e-07
0	1338	9.402720739414	-2.60586e-07
0	1341	9.430134364032	3.64032e-07
0	1344	9.483332121931	1.21931e-07
0	1347	9.530206863209	-1.36791e-07
0	1350	9.531683798971	-2.01029e-07
0	1353	9.587850302503	3.02503e-07
0	1356	9.602280282229	2.82229e-07
0	1359	9.609749642107	-3.57893e-07
0	1362	9.655335246865	2.46865e-07
0	1365	9.671970305779	3.05779e-07
0	1368	9.686376093327	9.3327e-08
0	1371	9.721218250226	2.50226e-07
0	1374	9.797678192705	1.92705e-07
0	1377	9.806350715878	-2.84122e-07
0	1380	9.811688442668	4.42668e-07
0	1383	9.83858014401	1.4401e-07
0	1386	9.852079338487	3.38487e-07
0	1389	9.856493003715	3.715e-09
0	1392	9.871991891832	-1.08168e-07
0	1395	9.919313852208	-1.47792e-07
0	1398	9.960056742886	-2.57114e-07
0	1401	9.971314287232	2.87232e-07
0	1404	9.989740453941	4.53941e-07

