version 3
run NoSec20_record-0-20250829-01:43:57-79381
attr configname NoSec20_record
attr datetime 20250829-01:43:57
attr datetimef 20250829-014357
attr experiment NoSec20_record
attr inifile run_record.ini
attr iterationvars ""
attr iterationvarsd ""
attr iterationvarsf ""
attr measurement ""
attr network ned.LightIoTNetwork
attr processid 79381
attr repetition 0
attr replication #0
attr resultdir results
attr runnumber 0
attr seedset 0
config output-scalar-file results/NoSec20_record-rep0.sca
config output-vector-file results/NoSec20_record-rep0.vec
config seed-set 0
config network ned.LightIoTNetwork
config output-scalar-file results/NoSec20_record-0.sca
config output-vector-file results/NoSec20_record-0.vec
config **.scalar-recording true
config **.vector-recording true
config **.result-recording-modes all
config LightIoTNetwork.numSensorNodes 20
config **.fakeNode.enabled false
config **.gateway.securityEnabled false
config **.gateway.procDelay 0s
config **.gateway.costForward_mJ 5
config **.gateway.costVerify_mJ 0
config **.gateway.batteryInit_mJ 5000
config sim-time-limit 10s
config description "Secure Mode Simulation (includes all scenarios)"
config network ned.LightIoTNetwork
config ned-path .
config sim-time-limit 10s
config record-eventlog true
config cmdenv-express-mode false
config network ned.LightIoTNetwork
config sim-time-limit 10s
config output-scalar-file results/secure_output.sca
config output-vector-file results/secure_output.vec
config network LightIoTNetwork
config sim-time-limit 10s
config output-scalar-file results/nosecure_output.sca
config output-vector-file results/nosecure_output.vec
config network LightIoTNetwork
config sim-time-limit 10s
config output-scalar-file results/attack_output.sca
config output-vector-file results/attack_output.vec
config output-scalar-file results/NoSec20_record-0.sca
config output-vector-file results/NoSec20_record-0.vec
config **.scalar-recording true
config **.vector-recording true
config **.statistic-recording true
config **.result-recording-modes all
config rng-class cMersenneTwister
config num-rngs 1
config seed-set 123

vector 0 LightIoTNetwork.cloud EndToEndDelay_s ETV
0	3	0.556712975726	-2.4274e-08
0	6	0.772656294517	2.94517e-07
0	9	0.797534605255	-3.94745e-07
0	12	0.88344152132	-4.7868e-07
0	15	0.884381708223	-2.91777e-07
0	18	0.923654796788	-2.03212e-07
0	21	0.937587209977	2.09977e-07
0	24	0.977665111655	1.11655e-07
0	27	1.044883177383	1.77383e-07
0	30	1.048813502304	-4.97696e-07
0	33	1.092844616389	-3.83611e-07
0	36	1.102763370378	3.70378e-07
0	39	1.123563696397	-3.03603e-07
0	42	1.145894115092	1.15092e-07
0	45	1.215189364972	3.64972e-07
0	48	1.34426574409	-2.5591e-07
0	51	1.347251737257	-2.62743e-07
0	54	1.357945619849	-3.80151e-07
0	57	1.391773001757	1.757e-09
0	60	1.463662764058	-2.35942e-07
0	63	1.615057982412	-1.7588e-08
0	66	1.803313589561	-4.10439e-07
0	69	1.83509003981	3.981e-08
0	72	1.8794369556	-4.44e-08
0	75	1.897990620974	-3.79026e-07
0	78	1.902211755421	-2.44579e-07
0	81	1.959090389125	3.89125e-07
0	84	2.010270475783	4.75783e-07
0	87	2.01629273463	-2.6537e-07
0	90	2.022706536623	-4.63377e-07
0	93	2.027607376221	3.76221e-07
0	96	2.044880865421	-1.34579e-07
0	99	2.119542422564	4.22564e-07
0	102	2.132397745689	-2.54311e-07
0	105	2.28171333354	3.3354e-07
0	108	2.286015775334	-2.24666e-07
0	111	2.402883088635	8.8635e-08
0	114	2.435696774954	-2.25046e-07
0	117	2.465775430808	4.30808e-07
0	120	2.537680214271	2.14271e-07
0	123	2.710781650991	-3.49009e-07
0	126	2.798035197565	1.97565e-07
0	129	2.890286493534	4.93534e-07
0	132	2.894921752577	-2.47423e-07
0	135	2.906307251519	2.51519e-07
0	138	2.9396191061	1.061e-07
0	141	2.939947619382	-3.80618e-07
0	144	3.015196224255	2.24255e-07
0	147	3.046046382515	3.82515e-07
0	150	3.048213079664	7.9664e-08
0	153	3.055591579619	-4.20381e-07
0	156	3.061284823669	-1.76331e-07
0	159	3.066833066941	6.6941e-08
0	162	3.139872391335	3.91335e-07
0	165	3.337738899421	-1.00579e-07
0	168	3.356878296239	2.96239e-07
0	171	3.370647117263	1.17263e-07
0	174	3.407252754271	-2.45729e-07
0	177	3.448707819032	-1.80968e-07
0	180	3.532400298817	2.98817e-07
0	183	3.663692773274	-2.26726e-07
0	186	3.735301666474	-3.33526e-07
0	189	3.882929177442	1.77442e-07
0	192	3.897537318711	3.18711e-07
0	195	3.942239858908	-1.41092e-07
0	198	3.942305388161	3.88161e-07
0	201	3.945133230835	2.30835e-07
0	204	3.949804342119	3.42119e-07
0	207	3.953634409047	4.09047e-07
0	210	3.991219796426	-2.03574e-07
0	213	4.013041280489	2.80489e-07
0	216	4.079118679789	-3.20211e-07
0	219	4.084336668439	-3.31561e-07
0	222	4.089252211434	2.11434e-07
0	225	4.33417609185	9.185e-08
0	228	4.361125699151	-3.00849e-07
0	231	4.459396732319	-2.67681e-07
0	234	4.485071878601	-1.21399e-07
0	237	4.487772448547	4.48547e-07
0	240	4.522390296729	2.96729e-07
0	243	4.635594353686	3.53686e-07
0	246	4.757914358843	3.58843e-07
0	249	4.857178324135	3.24135e-07
0	252	4.862161458469	4.58469e-07
0	255	4.870335567975	-4.32025e-07
0	258	4.978007034353	3.4353e-08
0	261	4.981766097992	9.7992e-08
0	264	4.986987751303	-2.48697e-07
0	267	5.013300597015	-4.02985e-07
0	270	5.021847802866	-1.97134e-07
0	273	5.026413180772	1.80772e-07
0	276	5.043766155839	1.55839e-07
0	279	5.047168855229	-1.44771e-07
0	282	5.060882645474	-3.54526e-07
0	285	5.25996135152	3.5152e-07
0	288	5.411262926925	-7.3075e-08
0	291	5.42248240225	4.0225e-07
0	294	5.460514603229	-3.96771e-07
0	297	5.48739974224	-2.5776e-07
0	300	5.506638011942	1.1942e-08
0	303	5.649633708876	-2.91124e-07
0	306	5.66559944395	4.4395e-07
0	309	5.844898626814	-3.73186e-07
0	312	5.8890162691	2.691e-07
0	315	5.902175059355	5.9355e-08
0	318	5.955075948731	-5.1269e-08
0	321	5.958675083006	8.3006e-08
0	324	5.968010334344	3.34344e-07
0	327	6.017545815091	-1.84909e-07
0	330	6.048859578278	-4.21722e-07
0	333	6.069796888205	-1.11795e-07
0	336	6.077252711916	-2.88084e-07
0	339	6.077790519641	-4.80359e-07
0	342	6.14282606896	6.896e-08
0	345	6.210619671783	-3.28217e-07
0	348	6.394136644527	-3.55473e-07
0	351	6.415744556812	-4.43188e-07
0	354	6.436284859851	-1.40149e-07
0	357	6.455454104254	1.04254e-07
0	360	6.531340033142	3.3142e-08
0	363	6.581427626172	-3.73828e-07
0	366	6.633200967452	-3.2548e-08
0	369	6.766973654647	-3.45353e-07
0	372	6.886311672908	-3.27092e-07
0	375	6.918516297684	2.97684e-07
0	378	6.923966733552	-2.66448e-07
0	381	6.933440977753	-2.2247e-08
0	384	6.956862286431	2.86431e-07
0	387	7.023679430689	4.30689e-07
0	390	7.04354192135	-7.865e-08
0	393	7.045540397335	3.97335e-07
0	396	7.109758085526	8.5526e-08
0	399	7.130039926013	-7.3987e-08
0	402	7.138773788558	-2.11442e-07
0	405	7.141989165823	1.65823e-07
0	408	7.374673784478	-2.15522e-07
0	411	7.418705863179	-1.36821e-07
0	414	7.471016786061	-2.13939e-07
0	417	7.483333538146	-4.61854e-07
0	420	7.625729032932	3.2932e-08
0	423	7.676719519216	-4.80784e-07
0	426	7.708839661163	-3.38837e-07
0	429	7.76070389431	-1.0569e-07
0	432	7.835109672136	-3.27864e-07
0	435	7.888236547262	-4.52738e-07
0	438	7.947094129211	1.29211e-07
0	441	7.947539455817	4.55817e-07
0	444	7.953377955128	-4.4872e-08
0	447	7.954410081356	8.1356e-08
0	450	8.013868515844	-4.84156e-07
0	453	8.066028478741	4.78741e-07
0	456	8.071532146958	1.46958e-07
0	459	8.086601317907	3.17907e-07
0	462	8.09810026982	2.6982e-07
0	465	8.234691134654	1.34654e-07
0	468	8.346562678274	-3.21726e-07
0	471	8.377933903038	-9.6962e-08
0	474	8.407079081004	8.1004e-08
0	477	8.467195493309	4.93309e-07
0	480	8.640316153876	1.53876e-07
0	483	8.663461270183	2.70183e-07
0	486	8.743556491984	4.91984e-07
0	489	8.784934839793	-1.60207e-07
0	492	8.801066047466	4.7466e-08
0	495	8.890458555844	-4.44156e-07
0	498	8.91875676671	-2.3329e-07
0	501	8.966415728257	-2.71743e-07
0	504	8.967730371048	3.71048e-07
0	507	8.986033879687	-1.20313e-07
0	510	9.019106376962	3.76962e-07
0	513	9.07332593915	-6.085e-08
0	516	9.086889028641	2.8641e-08
0	519	9.091250928492	-7.1508e-08
0	522	9.153479235852	2.35852e-07
0	525	9.181444861136	-1.38864e-07
0	528	9.323701578332	-4.21668e-07
0	531	9.393123202072	2.02072e-07
0	534	9.430794200674	2.00674e-07
0	537	9.553054732876	-2.67124e-07
0	540	9.595859866682	-1.33318e-07
0	543	9.627175061172	6.1172e-08
0	546	9.645427832333	-1.67667e-07
0	549	9.816818128245	1.28245e-07
0	552	9.818416915043	-8.4957e-08
0	555	9.869534463296	4.63296e-07
0	558	9.943915097882	9.7882e-08
0	561	9.948191594425	-4.05575e-07
0	564	9.972052409825	4.09825e-07

