version 3
run Secure20_record-0-20250829-01:43:55-78694
attr configname Secure20_record
attr datetime 20250829-01:43:55
attr datetimef 20250829-014355
attr experiment Secure20_record
attr inifile run_record.ini
attr iterationvars ""
attr iterationvarsd ""
attr iterationvarsf ""
attr measurement ""
attr network ned.LightIoTNetwork
attr processid 78694
attr repetition 0
attr replication #0
attr resultdir results
attr runnumber 0
attr seedset 1
config output-scalar-file results/Secure20_record-rep1.sca
config output-vector-file results/Secure20_record-rep1.vec
config seed-set 1
config network ned.LightIoTNetwork
config output-scalar-file results/Secure20_record-0.sca
config output-vector-file results/Secure20_record-0.vec
config **.scalar-recording true
config **.vector-recording true
config **.result-recording-modes all
config LightIoTNetwork.numSensorNodes 20
config **.fakeNode.enabled false
config **.gateway.securityEnabled true
config **.gateway.hmacWindow 1s
config **.gateway.procDelay 1ms
config **.gateway.costForward_mJ 5
config **.gateway.costVerify_mJ 5
config **.gateway.batteryInit_mJ 5000
config sim-time-limit 10s
config description "Secure Mode Simulation (includes all scenarios)"
config network ned.LightIoTNetwork
config ned-path .
config sim-time-limit 10s
config record-eventlog true
config cmdenv-express-mode false
config network ned.LightIoTNetwork
config sim-time-limit 10s
config output-scalar-file results/secure_output.sca
config output-vector-file results/secure_output.vec
config network LightIoTNetwork
config sim-time-limit 10s
config output-scalar-file results/nosecure_output.sca
config output-vector-file results/nosecure_output.vec
config network LightIoTNetwork
config sim-time-limit 10s
config output-scalar-file results/attack_output.sca
config output-vector-file results/attack_output.vec
config output-scalar-file results/Secure20_record-0.sca
config output-vector-file results/Secure20_record-0.vec
config **.scalar-recording true
config **.vector-recording true
config **.statistic-recording true
config **.result-recording-modes all
config rng-class cMersenneTwister
config num-rngs 1
config seed-set 123

vector 0 LightIoTNetwork.cloud EndToEndDelay_s ETV
0	3	0.50111438108	0.00100038108
0	6	0.593338595539	0.000999595539
0	9	0.629124447772	0.001000447772
0	12	0.647755892551	0.000999892551
0	15	0.687260211281	0.001000211281
0	18	0.737088976264	0.000999976264
0	21	0.80333256775	0.00099956775
0	24	0.84656072508	0.00099972508
0	27	0.888910740217	0.000999740217
0	32	0.897580726141	0.000999726141
0	33	0.897767468657	0.001000468657
0	36	0.918021998437	0.000999998437
0	39	1.039816731889	0.000999731889
0	42	1.170746040367	0.001000040367
0	45	1.221324489288	0.001000489288
0	48	1.347310918219	0.000999918219
0	51	1.4335573612	0.0010003612
0	54	1.436539072612	0.001000072612
0	57	1.484953284891	0.001000284891
0	60	1.498184808133	0.000999808133
0	63	1.500040515395	0.000999515395
0	66	1.555993298137	0.001000298137
0	69	1.628150661079	0.000999661079
0	72	1.652665525092	0.000999525092
0	75	1.666168347908	0.001000347908
0	78	1.725779555015	0.000999555015
0	81	1.792476169089	0.001000169089
0	84	1.794388259411	0.001000259411
0	87	1.878956055152	0.001000055152
0	90	1.904463507583	0.000999507583
0	93	1.931860970169	0.000999970169
0	96	2.000814402917	0.001000402917
0	99	2.023277692752	0.000999692752
0	102	2.162187002203	0.001000002203
0	105	2.233062454754	0.001000454754
0	108	2.333450632238	0.000999632238
0	111	2.361634748591	0.000999748591
0	114	2.424573581548	0.000999581548
0	117	2.524364631599	0.000999631599
0	120	2.553862655232	0.000999655232
0	123	2.560189428669	0.001000428669
0	126	2.599187400307	0.001000400307
0	129	2.628853184845	0.001000184845
0	132	2.644339717062	0.000999717062
0	135	2.713217025738	0.001000025738
0	138	2.721802975446	0.000999975446
0	141	2.798018769058	0.000999769058
0	144	2.830940692475	0.000999692475
0	147	2.940286534162	0.000999534162
0	150	2.954233884369	0.000999884369
0	153	2.977467556646	0.000999556646
0	156	3.010782302938	0.001000302938
0	159	3.066643785055	0.000999785055
0	162	3.140873411599	0.001000411599
0	165	3.228107675141	0.000999675141
0	168	3.288060627713	0.000999627713
0	171	3.295600833114	0.000999833114
0	174	3.336422220965	0.001000220965
0	177	3.479858795949	0.000999795949
0	180	3.587968263472	0.001000263472
0	183	3.59999313245	0.00100013245
0	186	3.613074708985	0.000999708985
0	189	3.617800503665	0.000999503665
0	192	3.678670535398	0.000999535398
0	195	3.704160551237	0.000999551237
0	198	3.770450871181	0.000999871181
0	203	3.804651826922	0.000999826922
0	204	3.804794932132	0.000999932132
0	207	3.912159813126	0.000999813126
0	210	3.939206329522	0.001000329522
0	213	3.940570683427	0.000999683427
0	216	3.978661956707	0.000999956707
0	219	4.103943969983	0.000999969983
0	222	4.197536306105	0.001000306105
0	225	4.199258489137	0.001000489137
0	228	4.243256482969	0.001000482969
0	231	4.270568396731	0.001000396731
0	234	4.295032809837	0.000999809837
0	237	4.529887658427	0.000999658427
0	240	4.612774260132	0.001000260132
0	243	4.638369595095	0.000999595095
0	246	4.645201853918	0.000999853918
0	249	4.660249349684	0.001000349684
0	252	4.667433634282	0.000999634282
0	255	4.697765349945	0.001000349945
0	258	4.749219841811	0.000999841811
0	261	4.759677771315	0.000999771315
0	264	4.832805015543	0.001000015543
0	267	4.853879164367	0.001000164367
0	270	4.862507693352	0.000999693352
0	273	4.930149388335	0.001000388335
0	276	4.972509661665	0.000999661665
0	279	5.116770757896	0.000999757896
0	282	5.157981317792	0.001000317792
0	285	5.185663070877	0.001000070877
0	288	5.21893090459	0.00099990459
0	291	5.228123465341	0.001000465341
0	294	5.323930517233	0.000999517233
0	297	5.455893372255	0.001000372255
0	300	5.542242986777	0.000999986777
0	303	5.56192645498	0.00100045498
0	306	5.617734136735	0.001000136735
0	309	5.640090972161	0.000999972161
0	312	5.696016455791	0.001000455791
0	315	5.712787102837	0.001000102837
0	318	5.750805901152	0.000999901152
0	321	5.792591037718	0.001000037718
0	324	5.831309517774	0.000999517774
0	327	5.840821897214	0.000999897214
0	330	5.852193796423	0.000999796423
0	333	5.879385518119	0.000999518119
0	336	5.985692067373	0.001000067373
0	339	6.115008785318	0.000999785318
0	342	6.131594279244	0.001000279244
0	345	6.180768981459	0.000999981459
0	348	6.245984572798	0.000999572798
0	351	6.27612631351	0.00100031351
0	354	6.31023803635	0.00100003635
0	357	6.482393341068	0.001000341068
0	360	6.488446071067	0.001000071067
0	363	6.495845044567	0.001000044567
0	366	6.62290216938	0.00100016938
0	369	6.62442383531	0.00099983531
0	372	6.749417819849	0.000999819849
0	377	6.75081258898	0.00099958898
0	378	6.751667134439	0.001000134439
0	381	6.775426890958	0.000999890958
0	384	6.786004082509	0.001000082509
0	387	6.839429619464	0.000999619464
0	390	6.88656479984	0.00099979984
0	393	6.894761212378	0.001000212378
0	396	6.905290817863	0.000999817863
0	399	7.059587503293	0.000999503293
0	402	7.147767715085	0.000999715085
0	405	7.183746802969	0.000999802969
0	408	7.21619830837	0.00100030837
0	411	7.304465288643	0.001000288643
0	414	7.365045265223	0.001000265223
0	417	7.49970434883	0.00100034883
0	420	7.551918775844	0.000999775844
0	423	7.565071165397	0.001000165397
0	426	7.576525427145	0.001000427145
0	429	7.631059807701	0.000999807701
0	432	7.67866785766	0.00099985766
0	435	7.739013856438	0.000999856438
0	438	7.761520951544	0.000999951544
0	441	7.818964986245	0.000999986245
0	444	7.827832051155	0.001000051155
0	447	7.830094308148	0.001000308148
0	450	7.836905149069	0.001000149069
0	453	7.894249738776	0.000999738776
0	456	7.935750593499	0.000999593499
0	459	8.120019919773	0.000999919773
0	462	8.14508921902	0.00100021902
0	465	8.153299974812	0.000999974812
0	468	8.230400020792	0.001000020792
0	471	8.354627709158	0.000999709158
0	474	8.392612560953	0.000999560953
0	477	8.477181752002	0.000999752002
0	480	8.544903946317	0.000999946317
0	483	8.614566345071	0.001000345071
0	486	8.641732383681	0.001000383681
0	489	8.655794248939	0.001000248939
0	492	8.708217736822	0.000999736822
0	495	8.732308769901	0.000999769901
0	498	8.784079886901	0.000999886901
0	503	8.788744653969	0.000999653969
0	504	8.78920234388	0.00100034388
0	507	8.808211492446	0.001000492446
0	510	8.8804786626	0.0009996626
0	513	8.973426981852	0.000999981852
0	516	8.986308263543	0.001000263543
0	519	9.105638157831	0.001000157831
0	522	9.132733859657	0.000999859657
0	525	9.221357584813	0.000999584813
0	528	9.246267984643	0.000999984643
0	531	9.387316008818	0.001000008818
0	534	9.392234374837	0.001000374837
0	537	9.459662348519	0.001000348519
0	540	9.50152089598	0.00099989598
0	543	9.537515539048	0.000999539048
0	546	9.621031202212	0.001000202212
0	549	9.699122678464	0.000999678464
0	552	9.722291196533	0.001000196533
0	555	9.745692100911	0.001000100911
0	558	9.755141959547	0.000999959547
0	561	9.78983885327	0.00099985327
0	564	9.804422575443	0.000999575443
0	567	9.856439320625	0.001000320625
0	570	9.877569733442	0.000999733442
0	573	9.920832377043	0.001000377043

