version 3
run Secure50_record-0-20250829-01:43:56-79031
attr configname Secure50_record
attr datetime 20250829-01:43:56
attr datetimef 20250829-014356
attr experiment Secure50_record
attr inifile run_record.ini
attr iterationvars ""
attr iterationvarsd ""
attr iterationvarsf ""
attr measurement ""
attr network ned.LightIoTNetwork
attr processid 79031
attr repetition 0
attr replication #0
attr resultdir results
attr runnumber 0
attr seedset 2
config output-scalar-file results/Secure50_record-rep2.sca
config output-vector-file results/Secure50_record-rep2.vec
config seed-set 2
config network ned.LightIoTNetwork
config output-scalar-file results/Secure50_record-0.sca
config output-vector-file results/Secure50_record-0.vec
config **.scalar-recording true
config **.vector-recording true
config **.result-recording-modes all
config LightIoTNetwork.numSensorNodes 50
config **.fakeNode.enabled false
config **.gateway.securityEnabled true
config **.gateway.hmacWindow 1s
config **.gateway.procDelay 1ms
config **.gateway.costForward_mJ 5
config **.gateway.costVerify_mJ 5
config **.gateway.batteryInit_mJ 5000
config sim-time-limit 10s
config description "Secure Mode Simulation (includes all scenarios)"
config network ned.LightIoTNetwork
config ned-path .
config sim-time-limit 10s
config record-eventlog true
config cmdenv-express-mode false
config network ned.LightIoTNetwork
config sim-time-limit 10s
config output-scalar-file results/secure_output.sca
config output-vector-file results/secure_output.vec
config network LightIoTNetwork
config sim-time-limit 10s
config output-scalar-file results/nosecure_output.sca
config output-vector-file results/nosecure_output.vec
config network LightIoTNetwork
config sim-time-limit 10s
config output-scalar-file results/attack_output.sca
config output-vector-file results/attack_output.vec
config output-scalar-file results/Secure50_record-0.sca
config output-vector-file results/Secure50_record-0.vec
config **.scalar-recording true
config **.vector-recording true
config **.statistic-recording true
config **.result-recording-modes all
config rng-class cMersenneTwister
config num-rngs 1
config seed-set 123

vector 0 LightIoTNetwork.cloud EndToEndDelay_s ETV
0	3	0.526926227914	0.001000227914
0	6	0.566286503639	0.000999503639
0	9	0.580645470949	0.001000470949
0	12	0.597530921524	0.000999921524
0	15	0.617193322698	0.001000322698
0	18	0.620950543856	0.000999543856
0	21	0.628159971744	0.000999971744
0	24	0.635579942329	0.000999942329
0	27	0.655426675523	0.000999675523
0	30	0.677984623773	0.000999623773
0	33	0.682727037299	0.001000037299
0	38	0.685439862845	0.000999862845
0	39	0.686082081473	0.001000081473
0	42	0.705648636049	0.000999636049
0	45	0.759498081472	0.001000081472
0	48	0.767827276442	0.001000276442
0	51	0.788868819898	0.000999819898
0	54	0.798018359881	0.001000359881
0	57	0.800654677277	0.000999677277
0	60	0.82153643628	0.00100043628
0	63	0.831334820319	0.000999820319
0	66	0.908307832502	0.000999832502
0	69	0.921367801562	0.000999801562
0	72	0.929122331155	0.001000331155
0	77	0.936322393198	0.001000393198
0	78	0.936994902626	0.000999902626
0	83	0.985749096213	0.001000096213
0	84	0.98617591483	0.00099991483
0	89	0.995236840401	0.000999840401
0	90	0.995289767928	0.000999767928
0	93	0.999561167624	0.001000167624
0	96	1.00624608884	0.00100008884
0	99	1.014578117825	0.001000117825
0	102	1.030142090352	0.001000090352
0	105	1.047207316453	0.001000316453
0	108	1.05066247594	0.00100047594
0	111	1.087796978954	0.000999978954
0	114	1.120270970346	0.000999970346
0	117	1.122133833192	0.000999833192
0	120	1.13373773063	0.00099973063
0	123	1.184025995037	0.000999995037
0	126	1.199862689314	0.000999689314
0	129	1.22075423093	0.00100023093
0	132	1.286335147521	0.001000147521
0	135	1.319226722069	0.000999722069
0	138	1.347561491257	0.001000491257
0	141	1.354975290898	0.001000290898
0	144	1.432540863588	0.000999863588
0	147	1.448730610846	0.000999610846
0	150	1.47063240765	0.00100040765
0	153	1.525847871577	0.000999871577
0	156	1.538582459627	0.001000459627
0	159	1.541897954953	0.000999954953
0	162	1.546275289519	0.001000289519
0	165	1.572221212996	0.001000212996
0	168	1.579439529706	0.000999529706
0	171	1.61154928666	0.00100028666
0	174	1.6253919326	0.0009999326
0	177	1.626430726866	0.000999726866
0	180	1.651041556358	0.000999556358
0	183	1.658934136642	0.001000136642
0	186	1.674448779154	0.000999779154
0	189	1.67628453432	0.00099953432
0	192	1.699383352533	0.001000352533
0	195	1.785482786246	0.000999786246
0	198	1.787579426751	0.001000426751
0	201	1.798680512862	0.000999512862
0	204	1.801702020665	0.001000020665
0	207	1.808713350421	0.001000350421
0	210	1.854148795385	0.000999795385
0	213	1.856636308482	0.001000308482
0	216	1.860891862469	0.000999862469
0	219	1.915888870903	0.000999870903
0	222	1.918208816856	0.000999816856
0	225	1.930913771246	0.000999771246
0	228	1.952323229773	0.001000229773
0	231	1.973596074315	0.001000074315
0	234	1.980095292091	0.001000292091
0	237	2.00815126479	0.00100026479
0	240	2.01457979062	0.00099979062
0	243	2.027292730541	0.000999730541
0	246	2.035387309104	0.001000309104
0	249	2.056119710229	0.000999710229
0	252	2.06574597454	0.00099997454
0	255	2.083330466574	0.001000466574
0	258	2.085484364838	0.001000364838
0	261	2.092471384093	0.001000384093
0	264	2.125111328274	0.001000328274
0	267	2.135562658705	0.000999658705
0	270	2.149315734323	0.000999734323
0	273	2.169535187887	0.001000187887
0	276	2.208103683381	0.000999683381
0	279	2.257070222194	0.001000222194
0	282	2.261697746323	0.000999746323
0	285	2.341129989572	0.000999989572
0	288	2.362096126213	0.001000126213
0	291	2.374538559675	0.000999559675
0	294	2.387375514278	0.000999514278
0	297	2.458316939113	0.000999939113
0	300	2.530272485431	0.001000485431
0	303	2.534689502673	0.000999502673
0	306	2.539479055325	0.001000055325
0	309	2.545489692151	0.000999692151
0	312	2.564374609873	0.000999609873
0	315	2.595241187255	0.001000187255
0	318	2.601410143007	0.001000143007
0	321	2.607685736497	0.000999736497
0	324	2.625719981709	0.000999981709
0	327	2.628419756959	0.000999756959
0	330	2.635893374192	0.001000374192
0	333	2.64401645672	0.00100045672
0	336	2.681719387066	0.001000387066
0	339	2.685690906527	0.000999906527
0	342	2.698911659908	0.000999659908
0	345	2.723775061754	0.001000061754
0	348	2.854751245374	0.001000245374
0	351	2.865240176045	0.001000176045
0	354	2.889940681237	0.000999681237
0	357	2.897450914954	0.000999914954
0	360	2.901300269854	0.001000269854
0	363	2.902829413371	0.001000413371
0	366	2.907441163458	0.001000163458
0	369	2.916687978594	0.000999978594
0	372	2.936252294597	0.001000294597
0	375	2.948527580801	0.000999580801
0	378	2.959517217263	0.001000217263
0	381	2.966755911264	0.000999911264
0	384	2.98390574383	0.00099974383
0	387	2.992466259584	0.001000259584
0	392	2.999784296028	0.001000296028
0	393	2.999962152516	0.001000152516
0	396	3.027444566296	0.000999566296
0	399	3.032106106191	0.001000106191
0	402	3.072158038079	0.001000038079
0	405	3.118131974315	0.000999974315
0	408	3.123833642271	0.000999642271
0	411	3.152801886549	0.000999886549
0	414	3.167354776453	0.000999776453
0	417	3.170335275702	0.001000275702
0	420	3.172010077	0.001000077
0	423	3.189102072477	0.001000072477
0	426	3.221778485574	0.001000485574
0	429	3.272424515498	0.000999515498
0	432	3.28499800323	0.00100000323
0	435	3.293078939872	0.000999939872
0	438	3.351916536478	0.000999536478
0	441	3.366162172541	0.001000172541
0	444	3.376824625883	0.000999625883
0	447	3.440587939531	0.000999939531
0	450	3.497844654855	0.000999654855
0	453	3.521331805478	0.000999805478
0	456	3.524720319103	0.001000319103
0	459	3.568306630127	0.000999630127
0	462	3.572560867783	0.000999867783
0	467	3.582038914853	0.000999914853
0	468	3.582297517196	0.000999517196
0	471	3.590801095566	0.001000095566
0	474	3.608298855531	0.000999855531
0	477	3.610074310353	0.001000310353
0	480	3.61558183513	0.00099983513
0	483	3.660553434514	0.001000434514
0	486	3.667166725197	0.000999725197
0	489	3.671576838172	0.000999838172
0	492	3.756215466162	0.001000466162
0	495	3.757379444804	0.001000444804
0	498	3.84274486152	0.00099986152
0	501	3.855392628791	0.000999628791
0	504	3.885810580034	0.000999580034
0	507	3.886862359032	0.001000359032
0	510	3.89686567399	0.00099967399
0	513	3.915021502715	0.000999502715
0	516	3.918601582735	0.000999582735
0	519	3.940465647562	0.000999647562
0	522	3.943438332969	0.001000332969
0	525	3.952288064895	0.001000064895
0	528	3.958723161764	0.001000161764
0	531	3.962613857094	0.000999857094
0	534	3.972714764601	0.000999764601
0	537	3.976122883729	0.000999883729
0	540	3.98419538422	0.00100038422
0	543	3.985685748489	0.000999748489
0	546	4.061338049428	0.001000049428
0	549	4.101560883246	0.000999883246
0	552	4.113262425292	0.001000425292
0	555	4.117887269821	0.001000269821
0	558	4.11993648142	0.00100048142
0	561	4.165811925264	0.000999925264
0	564	4.172452759858	0.000999759858
0	567	4.184304363303	0.001000363303
0	570	4.215402776631	0.000999776631
0	573	4.228045202302	0.001000202302
0	576	4.297618891647	0.000999891647
0	581	4.300257598957	0.000999598957
0	582	4.301192901445	0.000999901445
0	585	4.303497275873	0.001000275873
0	588	4.325375204789	0.001000204789
0	591	4.383253514044	0.000999514044
0	594	4.40915098565	0.00099998565
0	597	4.495097472494	0.001000472494
0	600	4.516918385331	0.001000385331
0	603	4.536896341875	0.001000341875
0	606	4.539711026636	0.001000026636
0	609	4.566525190719	0.001000190719
0	612	4.567929549026	0.000999549026
0	615	4.576933437049	0.001000437049
0	618	4.591502769313	0.000999769313
0	621	4.615744421561	0.001000421561
0	624	4.628094850038	0.000999850038
0	629	4.640556671214	0.000999671214
0	630	4.640888233506	0.001000233506
0	633	4.655822240862	0.001000240862
0	638	4.669222481106	0.001000481106
0	639	4.669791441387	0.001000441387
0	642	4.699376745637	0.000999745637
0	645	4.841071172966	0.001000172966
0	648	4.85610994154	0.00099994154
0	651	4.867777207982	0.001000207982
0	654	4.873809543368	0.000999543368
0	657	4.892197631229	0.000999631229
0	660	4.904187089694	0.001000089694
0	663	4.907773568689	0.000999568689
0	666	4.93623515691	0.00100015691
0	669	4.945454697753	0.000999697753
0	672	4.970652159093	0.001000159093
0	677	4.997630730481	0.000999730481
0	678	4.997811316674	0.001000316674
0	681	5.023248742914	0.000999742914
0	684	5.029266313113	0.001000313113
0	687	5.050935713829	0.000999713829
0	690	5.053229701914	0.000999701914
0	693	5.054249839926	0.000999839926
0	696	5.056258508958	0.000999508958
0	699	5.107902546947	0.000999546947
0	702	5.126273519568	0.000999519568
0	707	5.179666493344	0.001000493344
0	708	5.179743499471	0.001000499471
0	711	5.182157596829	0.000999596829
0	714	5.184063396439	0.001000396439
0	717	5.187502591008	0.000999591008
0	720	5.192537200566	0.001000200566
0	723	5.237626757961	0.000999757961
0	726	5.252659508097	0.000999508097
0	729	5.256680744489	0.000999744489
0	732	5.277069690101	0.000999690101
0	735	5.320578942843	0.000999942843
0	738	5.34016172348	0.00099972348
0	741	5.401899507244	0.000999507244
0	744	5.412624813453	0.000999813453
0	747	5.417214101668	0.001000101668
0	752	5.467954265861	0.001000265861
0	753	5.468575198971	0.001000198971
0	756	5.482264500831	0.000999500831
0	759	5.491708193276	0.001000193276
0	762	5.510082022495	0.001000022495
0	765	5.56311812785	0.00100012785
0	770	5.574778882717	0.000999882717
0	771	5.574879850794	0.000999850794
0	774	5.578013980039	0.000999980039
0	777	5.58737617738	0.00100017738
0	780	5.602805382361	0.001000382361
0	783	5.626542602595	0.000999602595
0	786	5.643860066938	0.001000066938
0	789	5.745220551337	0.000999551337
0	792	5.756335130216	0.001000130216
0	795	5.784056049142	0.001000049142
0	798	5.809463918931	0.000999918931
0	801	5.824897954449	0.000999954449
0	804	5.828577117272	0.001000117272
0	807	5.86207417671	0.00100017671
0	810	5.886479602916	0.000999602916
0	813	5.917672932449	0.000999932449
0	816	5.925739731988	0.000999731988
0	819	5.926853388057	0.001000388057
0	822	5.933022360198	0.001000360198
0	825	5.988597595528	0.000999595528
0	828	5.99735936385	0.00100036385
0	831	6.010176881145	0.000999881145
0	834	6.014477321808	0.001000321808
0	837	6.020248634763	0.000999634763
0	840	6.030348640144	0.000999640144
0	843	6.040195860316	0.000999860316
0	846	6.070131514151	0.000999514151
0	849	6.082912125368	0.001000125368
0	852	6.095332671725	0.000999671725
0	855	6.102834838604	0.000999838604
0	858	6.125638081343	0.001000081343
0	861	6.226828455109	0.001000455109
0	864	6.228133001247	0.001000001247
0	867	6.234323540446	0.000999540446
0	870	6.235853599872	0.000999599872
0	873	6.247047029738	0.001000029738
0	876	6.253695671982	0.000999671982
0	879	6.268230859865	0.000999859865
0	882	6.277313974709	0.000999974709
0	885	6.316457847341	0.000999847341
0	888	6.347814312831	0.001000312831
0	891	6.371608273056	0.001000273056
0	896	6.385486553863	0.000999553863
0	897	6.386087700794	0.000999700794
0	900	6.397826088848	0.001000088848
0	903	6.402718113805	0.001000113805
0	906	6.421799354092	0.001000354092
0	909	6.458139601698	0.000999601698
0	912	6.497820722241	0.000999722241
0	915	6.5345451148	0.0010001148
0	918	6.539675336633	0.001000336633
0	921	6.552896018722	0.001000018722
0	924	6.561934142536	0.001000142536
0	927	6.592836249082	0.001000249082
0	930	6.597089168079	0.001000168079
0	933	6.65392078876	0.00099978876
0	936	6.660145083419	0.001000083419
0	939	6.666698457462	0.001000457462
0	942	6.713260944537	0.000999944537
0	945	6.727983191771	0.001000191771
0	948	6.763086201087	0.001000201087
0	951	6.792553253308	0.001000253308
0	954	6.80167959954	0.00099959954
0	957	6.818582461704	0.001000461704
0	960	6.833538875097	0.000999875097
0	963	6.858583364332	0.001000364332
0	966	6.879810525872	0.000999525872
0	969	6.91333120812	0.00100020812
0	972	6.968262230301	0.001000230301
0	975	6.984108546911	0.000999546911
0	978	6.992926223365	0.001000223365
0	981	7.01252588781	0.00099988781
0	984	7.031912162085	0.001000162085
0	989	7.043299548862	0.000999548862
0	990	7.044244805512	0.000999805512
0	993	7.057235679519	0.000999679519
0	996	7.067818148178	0.001000148178
0	999	7.072515068226	0.001000068226
0	1002	7.128745489963	0.001000489963
0	1005	7.130927853168	0.000999853168
0	1008	7.200263549364	0.000999549364
0	1011	7.211901914211	0.000999914211
0	1014	7.223238392989	0.001000392989
0	1019	7.224943685507	0.000999685507
0	1020	7.225143754504	0.000999754504
0	1023	7.242050615209	0.000999615209
0	1026	7.248570526275	0.000999526275
0	1029	7.273377510323	0.000999510323
0	1032	7.284626005891	0.001000005891
0	1037	7.304492091317	0.001000091317
0	1038	7.30453186247	0.00099986247
0	1041	7.322604501082	0.000999501082
0	1046	7.323793735285	0.000999735285
0	1047	7.324244440463	0.001000440463
0	1050	7.376133136707	0.001000136707
0	1053	7.394884591664	0.000999591664
0	1056	7.441835521184	0.000999521184
0	1059	7.444312348706	0.001000348706
0	1062	7.472428933227	0.000999933227
0	1065	7.513657184107	0.001000184107
0	1068	7.545722525868	0.000999525868
0	1071	7.553451768239	0.000999768239
0	1074	7.589965715563	0.000999715563
0	1077	7.62029553086	0.00099953086
0	1080	7.6316265431	0.0009995431
0	1083	7.662990089015	0.001000089015
0	1086	7.684185768592	0.000999768592
0	1089	7.696150534251	0.000999534251
0	1092	7.732392734497	0.000999734497
0	1095	7.748688893137	0.000999893137
0	1098	7.777657991483	0.000999991483
0	1101	7.801474472298	0.001000472298
0	1104	7.838559272675	0.001000272675
0	1107	7.840251681324	0.000999681324
0	1110	7.864121156767	0.001000156767
0	1113	7.90224539635	0.00100039635
0	1116	7.914215560792	0.000999560792
0	1119	7.922877699809	0.000999699809
0	1122	7.928320268145	0.001000268145
0	1125	7.948339833574	0.000999833574
0	1128	7.964885590575	0.000999590575
0	1131	7.988034017546	0.001000017546
0	1134	7.992942658229	0.000999658229
0	1137	8.015582337765	0.001000337765
0	1140	8.02725796427	0.00099996427
0	1143	8.0757577101	0.0009997101
0	1146	8.099579974473	0.000999974473
0	1149	8.109735475595	0.001000475595
0	1152	8.129599368456	0.001000368456
0	1155	8.138690802337	0.000999802337
0	1158	8.14532577868	0.00099977868
0	1161	8.163321410746	0.001000410746
0	1164	8.165112155186	0.001000155186
0	1167	8.168553663626	0.000999663626
0	1170	8.219717450789	0.001000450789
0	1173	8.26866308616	0.00100008616
0	1176	8.274206770002	0.000999770002
0	1181	8.311614707832	0.000999707832
0	1182	8.312071460462	0.001000460462
0	1185	8.318546933005	0.000999933005
0	1190	8.358479256113	0.001000256113
0	1191	8.35855782975	0.00099982975
0	1194	8.364697288512	0.001000288512
0	1197	8.39512788269	0.00099988269
0	1200	8.405947424259	0.001000424259
0	1203	8.418168036662	0.001000036662
0	1206	8.445529714343	0.000999714343
0	1209	8.447826804896	0.000999804896
0	1212	8.454384472384	0.001000472384
0	1215	8.457421340676	0.001000340676
0	1218	8.565385064179	0.001000064179
0	1221	8.575160665508	0.000999665508
0	1226	8.600846172939	0.001000172939
0	1227	8.601782900024	0.000999900024
0	1230	8.603862780123	0.000999780123
0	1233	8.675665310931	0.001000310931
0	1236	8.692022290894	0.001000290894
0	1239	8.718635515285	0.000999515285
0	1242	8.771462907945	0.000999907945
0	1245	8.784205861041	0.000999861041
0	1248	8.834184595079	0.000999595079
0	1251	8.869941081083	0.001000081083
0	1254	8.872024706075	0.000999706075
0	1257	8.87461875507	0.00099975507
0	1260	8.882983539835	0.000999539835
0	1263	8.902644930709	0.000999930709
0	1266	8.906662495643	0.001000495643
0	1269	8.925483937723	0.000999937723
0	1272	8.943476067925	0.001000067925
0	1275	8.946767578389	0.000999578389
0	1278	8.948667053017	0.001000053017
0	1283	8.957282836664	0.000999836664
0	1284	8.957360021699	0.001000021699
0	1287	8.986081530686	0.000999530686
0	1290	8.990468572008	0.000999572008
0	1293	9.044839206361	0.001000206361
0	1296	9.090155869046	0.000999869046
0	1299	9.101497776782	0.000999776782
0	1302	9.108491130661	0.001000130661
0	1305	9.134569612448	0.000999612448
0	1308	9.149234018405	0.001000018405
0	1311	9.168201518872	0.000999518872
0	1314	9.177149517529	0.000999517529
0	1317	9.201804903918	0.000999903918
0	1320	9.22957997166	0.00099997166
0	1323	9.239376023295	0.001000023295
0	1326	9.252773443398	0.001000443398
0	1329	9.30375369007	0.00099969007
0	1332	9.335295334761	0.001000334761
0	1337	9.339605516683	0.000999516683
0	1338	9.340319185401	0.001000185401
0	1341	9.359982976245	0.000999976245
0	1344	9.363472388382	0.001000388382
0	1347	9.364682972966	0.000999972966
0	1350	9.40159758448	0.00099958448
0	1353	9.415997345256	0.001000345256
0	1356	9.419240662852	0.000999662852
0	1359	9.434843534767	0.000999534767
0	1362	9.518765762704	0.000999762704
0	1365	9.540519736963	0.000999736963
0	1368	9.549184345617	0.001000345617
0	1371	9.616587665606	0.000999665606
0	1374	9.645720408693	0.001000408693
0	1377	9.651285077795	0.001000077795
0	1380	9.679546865332	0.000999865332
0	1383	9.690330841229	0.000999841229
0	1386	9.718266768961	0.000999768961
0	1389	9.75035526671	0.00100026671
0	1392	9.77260744667	0.00100044667
0	1395	9.789483262015	0.001000262015
0	1400	9.813080832757	0.000999832757
0	1401	9.813227406864	0.001000406864
0	1404	9.81566313121	0.00100013121
0	1407	9.841551060345	0.001000060345
0	1410	9.851314459765	0.001000459765
0	1413	9.857668168772	0.001000168772
0	1416	9.873211333132	0.001000333132
0	1419	9.885540780494	0.000999780494
0	1422	9.89173398239	0.00099998239
0	1425	9.898722395415	0.001000395415
0	1428	9.899887547478	0.000999547478
0	1431	9.934662905683	0.000999905683
0	1434	9.9752580635	0.0010000635

