version 3
run Secure100_record-0-20250901-01:43:47-96625
attr configname Secure100_record
attr datetime 20250901-01:43:47
attr datetimef 20250901-014347
attr experiment Secure100_record
attr inifile run_record.ini
attr iterationvars ""
attr iterationvarsd ""
attr iterationvarsf ""
attr measurement ""
attr network ned.LightIoTNetwork
attr processid 96625
attr repetition 0
attr replication #0
attr resultdir results
attr runnumber 0
attr seedset 123
config network ned.LightIoTNetwork
config output-scalar-file results/Secure100_record-0.sca
config output-vector-file results/Secure100_record-0.vec
config **.scalar-recording true
config **.vector-recording true
config **.result-recording-modes all
config LightIoTNetwork.numSensorNodes 100
config **.fakeNode.enabled false
config **.gateway.securityEnabled true
config **.gateway.hmacWindow 1s
config **.gateway.procDelay 1ms
config **.gateway.costForward_mJ 5
config **.gateway.costVerify_mJ 5
config **.gateway.batteryInit_mJ 5000
config sim-time-limit 10s
config description "Secure Mode Simulation (includes all scenarios)"
config network ned.LightIoTNetwork
config ned-path .
config sim-time-limit 10s
config record-eventlog true
config cmdenv-express-mode false
config network ned.LightIoTNetwork
config sim-time-limit 10s
config output-scalar-file results/secure_output.sca
config output-vector-file results/secure_output.vec
config network LightIoTNetwork
config sim-time-limit 10s
config output-scalar-file results/nosecure_output.sca
config output-vector-file results/nosecure_output.vec
config network LightIoTNetwork
config sim-time-limit 10s
config output-scalar-file results/attack_output.sca
config output-vector-file results/attack_output.vec
config output-scalar-file results/Secure100_record-0.sca
config output-vector-file results/Secure100_record-0.vec
config **.scalar-recording true
config **.vector-recording true
config **.statistic-recording true
config **.result-recording-modes all
config rng-class cMersenneTwister
config num-rngs 1
config seed-set 123

vector 0 LightIoTNetwork.cloud EndToEndDelay_s ETV
0	3	0.528981954394	0.000999954394
0	6	0.560677898185	0.000999898185
0	9	0.578086482663	0.001000482663
0	12	0.58472648526	0.00100048526
0	15	0.593104936484	0.000999936484
0	18	0.609928948874	0.000999948874
0	21	0.61661839655	0.00100039655
0	24	0.640950763201	0.000999763201
0	27	0.655082243796	0.001000243796
0	30	0.674906518612	0.000999518612
0	33	0.676451755989	0.000999755989
0	36	0.683491732528	0.000999732528
0	39	0.727851454936	0.001000454936
0	42	0.729263235418	0.001000235418
0	45	0.733835931471	0.000999931471
0	48	0.73551287346	0.00099987346
0	51	0.745759279769	0.001000279769
0	54	0.751455366215	0.001000366215
0	57	0.787139338743	0.001000338743
0	60	0.794714039261	0.001000039261
0	63	0.798780498164	0.001000498164
0	66	0.803549452987	0.001000452987
0	69	0.813261217274	0.001000217274
0	72	0.818285481375	0.001000481375
0	75	0.823958909208	0.000999909208
0	78	0.825150895933	0.000999895933
0	81	0.844178014737	0.001000014737
0	84	0.858728919946	0.000999919946
0	87	0.86278865796	0.00099965796
0	90	0.874801432084	0.001000432084
0	93	0.893117517302	0.000999517302
0	96	0.899044250906	0.001000250906
0	99	0.902017554104	0.000999554104
0	102	0.911924367839	0.001000367839
0	105	0.91582621152	0.00100021152
0	108	0.918209947016	0.000999947016
0	111	0.924106460599	0.001000460599
0	116	0.926830292748	0.001000292748
0	117	0.927351303933	0.001000303933
0	122	0.928863489604	0.001000489604
0	123	0.929470924962	0.000999924962
0	126	0.9318627625	0.0009997625
0	129	0.934701172471	0.001000172471
0	132	0.937860662419	0.000999662419
0	135	0.93957224728	0.00100024728
0	138	0.941257177455	0.001000177455
0	141	0.965268054115	0.001000054115
0	144	0.981931907427	0.000999907427
0	147	0.984034263132	0.001000263132
0	152	0.992118932609	0.000999932609
0	153	0.993084773025	0.000999773025
0	156	0.994685098831	0.001000098831
0	159	0.996491786394	0.000999786394
0	162	0.998308790451	0.000999790451
0	165	1.002836673822	0.000999673822
0	168	1.012763376184	0.001000376184
0	171	1.020485121826	0.001000121826
0	176	1.032551370164	0.001000370164
0	177	1.032827588566	0.000999588566
0	180	1.052314765122	0.000999765122
0	183	1.069430698011	0.000999698011
0	186	1.080694297398	0.001000297398
0	189	1.094902397901	0.001000397901
0	192	1.112023514532	0.000999514532
0	195	1.11389452482	0.00099952482
0	198	1.124952951981	0.000999951981
0	201	1.128317003906	0.001000003906
0	206	1.13197612001	0.00100012001
0	207	1.132792020286	0.001000020286
0	210	1.135400961921	0.000999961921
0	213	1.155721309664	0.001000309664
0	216	1.184262908598	0.000999908598
0	219	1.185829734266	0.000999734266
0	222	1.191884851385	0.000999851385
0	225	1.194403239362	0.001000239362
0	228	1.195755175151	0.001000175151
0	231	1.197469187271	0.001000187271
0	236	1.213330177892	0.001000177892
0	237	1.213955321418	0.001000321418
0	242	1.220150308752	0.001000308752
0	243	1.22046897055	0.00099997055
0	246	1.223443384118	0.001000384118
0	249	1.22545532144	0.00100032144
0	252	1.230049708461	0.000999708461
0	255	1.238995401956	0.001000401956
0	258	1.241296386881	0.001000386881
0	261	1.251378704397	0.000999704397
0	264	1.252542998478	0.000999998478
0	267	1.266995950205	0.000999950205
0	270	1.278004436823	0.001000436823
0	273	1.281027760426	0.000999760426
0	276	1.350431794137	0.000999794137
0	279	1.367309153615	0.001000153615
0	282	1.390865699923	0.000999699923
0	285	1.394389164703	0.001000164703
0	288	1.417698677	0.000999677
0	291	1.445160021376	0.001000021376
0	294	1.453107687667	0.000999687667
0	297	1.481764200445	0.001000200445
0	300	1.48655978504	0.00099978504
0	303	1.488995284609	0.001000284609
0	306	1.556856323102	0.001000323102
0	309	1.566469535813	0.000999535813
0	312	1.576857988838	0.000999988838
0	315	1.613716961791	0.000999961791
0	318	1.623635010955	0.001000010955
0	321	1.625631997756	0.000999997756
0	324	1.627634411513	0.001000411513
0	327	1.637275914404	0.000999914404
0	332	1.643354642414	0.000999642414
0	333	1.644272166932	0.001000166932
0	336	1.651650929566	0.000999929566
0	339	1.70501613079	0.00100013079
0	342	1.711255896905	0.000999896905
0	345	1.757205713749	0.000999713749
0	348	1.76711763672	0.00099963672
0	351	1.770096083474	0.001000083474
0	354	1.779253828734	0.000999828734
0	357	1.786063621961	0.000999621961
0	360	1.789223806722	0.000999806722
0	367	1.809386730263	0.000999730263
0	368	1.80975651557	0.00099951557
0	369	1.809875964535	0.000999964535
0	372	1.820850648241	0.000999648241
0	375	1.830448526679	0.000999526679
0	378	1.832643254776	0.001000254776
0	383	1.8486134283	0.0010004283
0	384	1.848939609364	0.000999609364
0	387	1.854277203627	0.001000203627
0	392	1.862037539598	0.000999539598
0	393	1.862951052537	0.001000052537
0	398	1.864559487323	0.001000487323
0	399	1.864741322328	0.001000322328
0	402	1.869880650587	0.000999650587
0	405	1.871323110419	0.001000110419
0	408	1.879115825262	0.000999825262
0	411	1.885696040349	0.001000040349
0	414	1.887260104459	0.001000104459
0	417	1.925693533359	0.000999533359
0	420	1.931257145502	0.001000145502
0	423	1.934628603257	0.000999603257
0	426	1.936038136272	0.001000136272
0	429	1.941842696372	0.000999696372
0	432	1.951099224411	0.001000224411
0	435	1.954754121344	0.001000121344
0	438	1.956661800085	0.000999800085
0	441	1.96502204046	0.00100004046
0	444	1.968922016327	0.001000016327
0	447	1.974023224948	0.001000224948
0	450	1.987528444244	0.001000444244
0	453	1.990146187528	0.001000187528
0	456	1.999749654368	0.000999654368
0	459	2.00784882449	0.00099982449
0	462	2.009951324411	0.001000324411
0	467	2.011766538139	0.000999538139
0	468	2.011971149197	0.001000149197
0	471	2.025068537494	0.000999537494
0	474	2.03318398313	0.00099998313
0	477	2.068628154159	0.001000154159
0	480	2.071933494531	0.001000494531
0	483	2.08078989142	0.00099989142
0	486	2.083025240642	0.001000240642
0	489	2.08531870928	0.00099970928
0	492	2.103121532708	0.000999532708
0	495	2.104596932255	0.000999932255
0	498	2.106107119074	0.001000119074
0	501	2.124771175789	0.001000175789
0	504	2.13087663676	0.00099963676
0	507	2.133296455652	0.001000455652
0	510	2.142015472356	0.001000472356
0	513	2.157309248321	0.001000248321
0	516	2.158422801946	0.000999801946
0	519	2.164072602032	0.000999602032
0	522	2.17047373352	0.00099973352
0	525	2.186609817366	0.000999817366
0	528	2.189365120301	0.001000120301
0	533	2.193592457542	0.001000457542
0	534	2.193977393372	0.001000393372
0	537	2.206395524158	0.000999524158
0	540	2.210178374754	0.001000374754
0	543	2.217818518332	0.000999518332
0	546	2.224055309337	0.001000309337
0	549	2.226541268708	0.001000268708
0	552	2.229982729092	0.000999729092
0	555	2.23478719585	0.00100019585
0	558	2.261460736137	0.000999736137
0	561	2.268900890624	0.000999890624
0	564	2.285631334385	0.001000334385
0	567	2.297534643649	0.000999643649
0	570	2.303888267627	0.001000267627
0	573	2.319368119933	0.001000119933
0	576	2.324527018958	0.001000018958
0	579	2.349383221217	0.001000221217
0	582	2.374164422484	0.001000422484
0	585	2.393331201304	0.001000201304
0	588	2.425442021549	0.001000021549
0	591	2.426680740271	0.000999740271
0	594	2.450455403397	0.001000403397
0	597	2.462741069424	0.001000069424
0	600	2.470252209645	0.001000209645
0	603	2.49162091601	0.00099991601
0	606	2.534898658724	0.000999658724
0	609	2.551810987967	0.000999987967
0	612	2.561260238638	0.001000238638
0	615	2.571684511586	0.000999511586
0	618	2.587266733706	0.000999733706
0	621	2.590284994918	0.000999994918
0	624	2.599794445396	0.001000445396
0	627	2.601672035384	0.001000035384
0	630	2.63540232738	0.00100032738
0	633	2.669994397949	0.001000397949
0	636	2.676585034443	0.001000034443
0	639	2.704595413546	0.001000413546
0	642	2.760727241425	0.001000241425
0	645	2.763031183811	0.001000183811
0	648	2.764664892549	0.000999892549
0	651	2.767857181955	0.001000181955
0	654	2.772744309738	0.001000309738
0	657	2.774317375965	0.001000375965
0	660	2.78072889943	0.00099989943
0	663	2.786233652731	0.000999652731
0	666	2.791151303587	0.001000303587
0	669	2.816241745953	0.000999745953
0	672	2.822011372143	0.001000372143
0	675	2.824808896309	0.000999896309
0	678	2.830703138396	0.001000138396
0	683	2.840955624892	0.000999624892
0	684	2.840986580937	0.000999580937
0	687	2.857729339855	0.001000339855
0	690	2.868791373516	0.001000373516
0	693	2.871581850642	0.000999850642
0	696	2.873425067611	0.001000067611
0	699	2.875629722071	0.000999722071
0	702	2.880451615736	0.000999615736
0	705	2.883369868969	0.000999868969
0	708	2.886007054871	0.001000054871
0	711	2.89456507929	0.00100007929
0	714	2.905886413552	0.001000413552
0	717	2.913252004072	0.001000004072
0	720	2.914435956184	0.000999956184
0	723	2.925386208133	0.001000208133
0	728	2.946472479705	0.001000479705
0	729	2.946703748241	0.000999748241
0	734	2.959318033023	0.001000033023
0	735	2.959357236395	0.001000236395
0	738	2.962326645594	0.000999645594
0	741	2.969024071306	0.001000071306
0	744	2.97123662827	0.00099962827
0	747	3.003592348773	0.001000348773
0	750	3.012445851904	0.000999851904
0	755	3.015494884713	0.000999884713
0	756	3.015696918521	0.000999918521
0	759	3.017532513126	0.000999513126
0	762	3.023362616332	0.000999616332
0	765	3.024638347163	0.001000347163
0	768	3.036699222004	0.001000222004
0	771	3.047502164472	0.001000164472
0	774	3.0529895799	0.0009995799
0	777	3.05440550011	0.00099950011
0	782	3.071515109832	0.001000109832
0	783	3.07154439187	0.00100039187
0	786	3.073182406439	0.001000406439
0	791	3.086462274914	0.001000274914
0	792	3.086872364462	0.001000364462
0	795	3.098489265306	0.001000265306
0	798	3.100759622384	0.000999622384
0	801	3.124736645421	0.000999645421
0	806	3.127004497893	0.001000497893
0	807	3.127518389211	0.001000389211
0	810	3.129565586079	0.000999586079
0	813	3.136483860551	0.000999860551
0	818	3.149742057616	0.001000057616
0	819	3.150059930071	0.000999930071
0	822	3.157649045647	0.001000045647
0	825	3.183719755033	0.000999755033
0	828	3.185913422819	0.001000422819
0	831	3.196847936208	0.000999936208
0	834	3.197944068186	0.001000068186
0	837	3.203602783404	0.000999783404
0	840	3.207256499002	0.001000499002
0	843	3.209826260362	0.001000260362
0	846	3.215948239458	0.001000239458
0	849	3.217400433518	0.001000433518
0	852	3.230000776913	0.000999776913
0	855	3.266754050156	0.001000050156
0	858	3.276241020648	0.001000020648
0	861	3.282701637246	0.000999637246
0	864	3.289017043286	0.001000043286
0	867	3.293449712381	0.000999712381
0	870	3.303047008509	0.001000008509
0	873	3.319301390157	0.001000390157
0	876	3.320304044638	0.001000044638
0	879	3.370073317619	0.001000317619
0	882	3.3760502754	0.0010002754
0	885	3.397755651245	0.000999651245
0	888	3.401623988686	0.000999988686
0	891	3.408801049762	0.001000049762
0	894	3.424808492393	0.001000492393
0	897	3.446554630878	0.000999630878
0	900	3.468420219071	0.001000219071
0	903	3.52899183498	0.00099983498
0	906	3.530589738603	0.000999738603
0	909	3.551578944338	0.000999944338
0	912	3.592272833151	0.000999833151
0	915	3.596375545136	0.000999545136
0	918	3.608010575429	0.000999575429
0	921	3.614619778305	0.000999778305
0	924	3.616439363942	0.001000363942
0	927	3.623468066867	0.001000066867
0	930	3.624504105303	0.001000105303
0	933	3.634724328921	0.001000328921
0	936	3.698317170399	0.001000170399
0	939	3.700757262785	0.001000262785
0	942	3.716947984857	0.000999984857
0	945	3.73756990379	0.00099990379
0	948	3.753415273944	0.001000273944
0	953	3.757936456357	0.001000456357
0	954	3.758362138154	0.001000138154
0	957	3.762382951028	0.000999951028
0	960	3.765138821466	0.000999821466
0	963	3.773876529675	0.000999529675
0	966	3.783885379996	0.001000379996
0	969	3.797331054159	0.001000054159
0	972	3.807119435374	0.001000435374
0	975	3.814754619705	0.000999619705
0	980	3.837293459591	0.001000459591
0	981	3.837937296484	0.001000296484
0	984	3.840602542203	0.000999542203
0	989	3.842949640493	0.000999640493
0	990	3.843042998738	0.000999998738
0	993	3.862533540208	0.000999540208
0	998	3.868917164136	0.001000164136
0	999	3.869260964985	0.000999964985
0	1002	3.874263556883	0.000999556883
0	1005	3.882159455795	0.001000455795
0	1008	3.885600596456	0.000999596456
0	1011	3.903500990126	0.000999990126
0	1014	3.917255979613	0.000999979613
0	1017	3.928064769668	0.000999769668
0	1020	3.931622569378	0.000999569378
0	1027	3.933888531172	0.000999531172
0	1028	3.934550591813	0.000999591813
0	1029	3.934601074433	0.001000074433
0	1032	3.94122112554	0.00100012554
0	1035	3.944708479311	0.001000479311
0	1038	3.952321461656	0.001000461656
0	1043	3.968885185172	0.001000185172
0	1044	3.96930327646	0.00100027646
0	1047	3.975715006213	0.001000006213
0	1050	3.994523368146	0.001000368146
0	1053	3.996086655906	0.000999655906
0	1056	4.010910985082	0.000999985082
0	1059	4.02044198166	0.00099998166
0	1062	4.027377907442	0.000999907442
0	1065	4.031235051783	0.001000051783
0	1068	4.033324893167	0.000999893167
0	1073	4.038769165589	0.001000165589
0	1074	4.039266871683	0.000999871683
0	1077	4.051545205455	0.001000205455
0	1080	4.059803543216	0.000999543216
0	1083	4.076411948655	0.000999948655
0	1086	4.083988068368	0.001000068368
0	1091	4.085566680109	0.000999680109
0	1092	4.0857383779	0.0010003779
0	1095	4.097340174089	0.001000174089
0	1098	4.0999077162	0.0009997162
0	1101	4.101148914847	0.000999914847
0	1104	4.121115903347	0.000999903347
0	1107	4.145335582667	0.000999582667
0	1110	4.151045406399	0.001000406399
0	1113	4.173590629292	0.000999629292
0	1116	4.178450431557	0.001000431557
0	1119	4.182796920253	0.000999920253
0	1122	4.187065515643	0.000999515643
0	1125	4.188754229364	0.001000229364
0	1128	4.19203960027	0.00099960027
0	1131	4.194038300471	0.001000300471
0	1134	4.198071501939	0.000999501939
0	1137	4.199313657288	0.000999657288
0	1140	4.210946330916	0.001000330916
0	1143	4.213991317874	0.001000317874
0	1146	4.217997702606	0.000999702606
0	1149	4.220037875579	0.000999875579
0	1152	4.24255121916	0.00100021916
0	1155	4.260951945907	0.000999945907
0	1158	4.276512903882	0.000999903882
0	1161	4.28323436568	0.00100036568
0	1166	4.313608562224	0.000999562224
0	1167	4.314388665812	0.000999665812
0	1170	4.316378426295	0.001000426295
0	1173	4.321525323413	0.001000323413
0	1176	4.346481461472	0.001000461472
0	1179	4.355584349832	0.001000349832
0	1182	4.370905501558	0.000999501558
0	1185	4.379919859743	0.000999859743
0	1188	4.403383649955	0.000999649955
0	1191	4.410782271506	0.001000271506
0	1194	4.446711782063	0.000999782063
0	1197	4.448691715089	0.000999715089
0	1202	4.464933833362	0.000999833362
0	1203	4.465229366462	0.001000366462
0	1206	4.503897860016	0.000999860016
0	1209	4.537519020981	0.001000020981
0	1212	4.561559748206	0.000999748206
0	1215	4.621284315152	0.001000315152
0	1218	4.625614057875	0.001000057875
0	1223	4.626767583074	0.000999583074
0	1224	4.62704851853	0.00099951853
0	1227	4.649479150607	0.001000150607
0	1230	4.66667411474	0.00100011474
0	1233	4.672202376903	0.001000376903
0	1238	4.677347534917	0.000999534917
0	1239	4.677740804407	0.000999804407
0	1242	4.713837043451	0.001000043451
0	1245	4.721798814623	0.000999814623
0	1248	4.729840474039	0.001000474039
0	1251	4.752015820121	0.000999820121
0	1254	4.753805997479	0.000999997479
0	1257	4.768165256525	0.001000256525
0	1260	4.777536719034	0.000999719034
0	1263	4.782417408959	0.001000408959
0	1266	4.790170029714	0.001000029714
0	1269	4.799928158638	0.001000158638
0	1272	4.801074372674	0.001000372674
0	1277	4.805586733413	0.000999733413
0	1278	4.806115844636	0.000999844636
0	1281	4.825263486405	0.001000486405
0	1284	4.832336389994	0.001000389994
0	1287	4.846423235465	0.001000235465
0	1290	4.854234207444	0.001000207444
0	1293	4.856381887592	0.000999887592
0	1296	4.858738795318	0.000999795318
0	1299	4.865445520052	0.000999520052
0	1302	4.876508600241	0.000999600241
0	1305	4.886789985907	0.000999985907
0	1308	4.892028441675	0.001000441675
0	1313	4.894853594968	0.000999594968
0	1314	4.895574730238	0.000999730238
0	1317	4.914345924207	0.000999924207
0	1322	4.916643233294	0.001000233294
0	1323	4.917346744401	0.000999744401
0	1326	4.930237917392	0.000999917392
0	1329	4.938747804541	0.000999804541
0	1332	4.940460383822	0.001000383822
0	1335	4.961013114055	0.001000114055
0	1338	4.966787937865	0.000999937865
0	1341	4.972607589395	0.000999589395
0	1344	4.986327634635	0.000999634635
0	1347	4.990406511327	0.000999511327
0	1350	5.000488410912	0.001000410912
0	1353	5.001502955076	0.000999955076
0	1356	5.004672608174	0.000999608174
0	1359	5.006101114839	0.001000114839
0	1364	5.008094543707	0.000999543707
0	1365	5.008249965984	0.000999965984
0	1368	5.013172526168	0.000999526168
0	1371	5.024749077274	0.001000077274
0	1378	5.031627020821	0.001000020821
0	1379	5.031678318395	0.001000318395
0	1380	5.032407975918	0.000999975918
0	1383	5.035955837577	0.000999837577
0	1386	5.044990155403	0.001000155403
0	1389	5.052251651067	0.000999651067
0	1392	5.059394499217	0.001000499217
0	1395	5.074981364536	0.001000364536
0	1398	5.081219245005	0.001000245005
0	1401	5.082235208364	0.001000208364
0	1404	5.103295280713	0.001000280713
0	1407	5.115100399381	0.001000399381
0	1410	5.132923489039	0.001000489039
0	1413	5.14143906983	0.00100006983
0	1416	5.143186287604	0.001000287604
0	1419	5.152954309642	0.001000309642
0	1422	5.155059549235	0.000999549235
0	1425	5.162707132542	0.001000132542
0	1428	5.201939264195	0.001000264195
0	1431	5.203712607105	0.000999607105
0	1434	5.217019764495	0.000999764495
0	1437	5.221711752446	0.000999752446
0	1442	5.224331239914	0.001000239914
0	1443	5.224575528851	0.000999528851
0	1446	5.229053108463	0.001000108463
0	1449	5.2337962982	0.0010002982
0	1452	5.252740732463	0.000999732463
0	1455	5.254553616582	0.000999616582
0	1458	5.258271471294	0.001000471294
0	1461	5.263430141726	0.001000141726
0	1464	5.284870668524	0.000999668524
0	1467	5.299472182593	0.001000182593
0	1470	5.313907075043	0.001000075043
0	1473	5.348285982641	0.000999982641
0	1476	5.350683635215	0.000999635215
0	1479	5.358617652789	0.000999652789
0	1486	5.366092147096	0.001000147096
0	1487	5.366645623906	0.000999623906
0	1488	5.366772335185	0.001000335185
0	1491	5.40687902544	0.00100002544
0	1494	5.448185242922	0.001000242922
0	1497	5.453531837671	0.000999837671
0	1500	5.470566819258	0.000999819258

