version 3
run AttackOnNoSec50_record-0-20250819-01:59:54-5435
attr configname AttackOnNoSec50_record
attr datetime 20250819-01:59:54
attr datetimef 20250819-015954
attr experiment AttackOnNoSec50_record
attr inifile run_record.ini
attr iterationvars ""
attr iterationvarsd ""
attr iterationvarsf ""
attr measurement ""
attr network ned.LightIoTNetwork
attr processid 5435
attr repetition 0
attr replication #0
attr resultdir results
attr runnumber 0
attr seedset 123
config LightIoTNetwork.numSensorNodes 50
config **.fakeNode.enabled true
config **.fakeNode.attackMode 1
config **.fakeNode.replayInterval 2.5s
config **.gateway.securityEnabled false
config **.gateway.procDelay 0s
config **.gateway.costVerify_mJ 0
config description "Secure Mode Simulation (includes all scenarios)"
config network ned.LightIoTNetwork
config ned-path .:ned
config sim-time-limit 10s
config record-eventlog true
config cmdenv-express-mode false
config network ned.LightIoTNetwork
config sim-time-limit 10s
config output-scalar-file results/secure_output.sca
config output-vector-file results/secure_output.vec
config network LightIoTNetwork
config sim-time-limit 10s
config output-scalar-file results/nosecure_output.sca
config output-vector-file results/nosecure_output.vec
config network LightIoTNetwork
config sim-time-limit 10s
config output-scalar-file results/attack_output.sca
config output-vector-file results/attack_output.vec
config output-scalar-file results/AttackOnNoSec50_record-0.sca
config output-vector-file results/AttackOnNoSec50_record-0.vec
config **.scalar-recording true
config **.vector-recording true
config output-scalar-file results/AttackOnNoSec50_record-0.sca
config output-vector-file results/AttackOnNoSec50_record-0.vec
config **.scalar-recording true
config **.vector-recording true
config output-scalar-file results/AttackOnNoSec50_record-0.sca
config output-vector-file results/AttackOnNoSec50_record-0.vec
config **.scalar-recording true
config **.vector-recording true
config **.result-recording-modes all
config sim-time-limit 10s
config rng-class cMersenneTwister
config num-rngs 1
config seed-set 123
config network ned.LightIoTNetwork
config **.fakeNode.enabled false
config **.gateway.batteryInit_mJ 5000
config **.gateway.costForward_mJ 5
config **.gateway.costVerify_mJ 5
config **.gateway.procDelay 1ms
config **.gateway.hmacWindow 1s

vector 0 LightIoTNetwork.cloud EndToEndDelay_s ETV
0	3	0.559677898185	0
0	6	0.58372648526	0
0	9	0.639950763201	0
0	12	0.675451755989	0
0	15	0.682491732528	0
0	18	0.726851454936	0
0	21	0.744759279769	0
0	24	0.786139338743	0
0	27	0.797780498164	0
0	30	0.824150895933	0
0	33	0.843178014737	0
0	36	0.857728919946	0
0	39	0.892117517302	0
0	42	0.898044250906	0
0	45	0.901017554104	0
0	48	0.910924367839	0
0	51	0.917209947016	0
0	54	0.923106460599	0
0	57	0.927863489604	0
0	60	0.928470924962	0
0	63	0.93857224728	0
0	66	0.940257177455	0
0	69	0.980931907427	0
0	72	0.991118932609	0
0	75	0.992084773025	0
0	78	1.031551370164	0
0	81	1.031827588566	0
0	84	1.051314765122	0
0	87	1.079694297398	0
0	90	1.093902397901	0
0	93	1.111023514532	0
0	96	1.127317003906	0
0	99	1.131792020286	0
0	102	1.134400961921	0
0	105	1.184829734266	0
0	108	1.190884851385	0
0	111	1.194755175151	0
0	114	1.196469187271	0
0	117	1.212330177892	0
0	120	1.212955321418	0
0	123	1.219150308752	0
0	126	1.21946897055	0
0	129	1.222443384118	0
0	132	1.22445532144	0
0	135	1.229049708461	0
0	138	1.237995401956	0
0	141	1.240296386881	0
0	144	1.280027760426	0
0	147	1.349431794137	0
0	150	1.480764200445	0
0	153	1.556084216852	0
0	156	1.590622160118	0
0	159	1.614711049618	0
0	162	1.621104403073	0
0	165	1.62939430722	0
0	168	1.685594262788	0
0	171	1.74257188323	0
0	174	1.797713908181	0
0	177	1.812334562745	0
0	180	1.835798857826	0
0	183	1.842358336691	0
0	186	1.843280786137	0
0	189	1.84446915444	0
0	192	1.848026395775	0
0	195	1.850979688205	0
0	198	1.884216803406	0
0	201	1.890923168417	0
0	204	1.898578902102	0
0	207	1.908272519149	0
0	210	1.909661387605	0
0	213	1.925527438242	0
0	216	2.016545387265	0
0	219	2.030765420897	0
0	222	2.031007648306	0
0	225	2.034180263803	0
0	228	2.050440683216	0
0	231	2.051682099886	0
0	234	2.06979676555	0
0	237	2.072547908221	0
0	240	2.092301910883	0
0	243	2.097858058196	0
0	246	2.118692988297	0
0	249	2.120383374439	0
0	252	2.124709654134	0
0	255	2.140936098527	0
0	258	2.163046394661	0
0	261	2.173850093689	0
0	264	2.175616894755	0
0	267	2.184291492356	0
0	270	2.216075823176	0
0	273	2.221541741397	0
0	276	2.227668519365	0
0	279	2.231407756871	0
0	282	2.241892426321	0
0	285	2.269731017994	0
0	288	2.295669913292	0
0	291	2.30260666539	0
0	294	2.321567278448	0
0	297	2.322958909208	2
0	300	2.399740393833	0
0	303	2.404889933718	0
0	306	2.552262641769	0
0	309	2.585934894159	0
0	312	2.64171642838	0
0	315	2.655890319869	0
0	318	2.67425673129	0
0	321	2.694607863994	0
0	324	2.714286032971	0
0	327	2.729255531542	0
0	330	2.76626667534	0
0	333	2.796623016241	0
0	336	2.810517533729	0
0	339	2.826685228106	0
0	342	2.844483932992	0
0	345	2.879183699004	0
0	348	2.882323555742	0
0	351	2.884286547778	0
0	354	2.899622101849	0
0	357	2.900663370081	0
0	360	2.924853545008	0
0	363	2.943524144217	0
0	366	2.959308171878	0
0	369	2.988283196604	0
0	372	3.007622440672	0
0	375	3.008940909151	0
0	378	3.03373269667	0
0	381	3.055988348462	0
0	384	3.057694502268	0
0	387	3.060851346888	0
0	390	3.073442929937	0
0	393	3.077003355138	0
0	396	3.085378493741	0
0	399	3.098175979871	0
0	402	3.101890986599	0
0	405	3.126751113171	0
0	408	3.135218326514	0
0	411	3.138265253092	0
0	414	3.163427745039	0
0	417	3.171429555537	0
0	420	3.1727133343	0
0	423	3.190108287194	0
0	426	3.198605194128	0
0	429	3.224793119775	0
0	432	3.225717115169	0
0	435	3.267342219501	0
0	438	3.304733885033	0
0	441	3.340353183588	0
0	444	3.353542378033	0
0	447	3.395149905468	0
0	450	3.401464649383	0
0	453	3.42377630989	0
0	456	3.514239343023	0
0	459	3.587682249304	0
0	462	3.597291932255	0
0	465	3.625221966579	0
0	468	3.630415371433	0
0	471	3.643157292297	0
0	474	3.687975135166	0
0	477	3.76037630136	0
0	480	3.767053372087	0
0	483	3.768361437507	0
0	486	3.812848476973	0
0	489	3.82599875792	0
0	492	3.862076662946	0
0	495	3.865079285857	0
0	498	3.872242914094	0
0	501	3.890060349973	0
0	504	3.917659202497	0
0	507	3.926437811832	0
0	510	3.959762710659	0
0	513	3.979992993875	0
0	516	3.985689868127	0
0	519	3.986211322807	0
0	522	3.995848107245	0
0	525	4.001586531988	0
0	528	4.002717914898	0
0	531	4.01185814389	0
0	534	4.016941963137	0
0	537	4.033729444677	0
0	540	4.040488483012	0
0	543	4.074957348593	0
0	546	4.081318714843	0
0	549	4.083275350277	0
0	552	4.096722305473	0
0	555	4.097934085969	0
0	558	4.117995120725	0
0	561	4.155018609809	0
0	564	4.162822830257	0
0	567	4.184234636463	0
0	570	4.190064939717	0
0	573	4.190774816322	0
0	576	4.197247677389	0
0	579	4.228448646701	0
0	582	4.247117477282	0
0	585	4.27361542154	0
0	588	4.288524363516	0
0	591	4.327115430637	0
0	594	4.357287417678	0
0	597	4.36384110842	0
0	600	4.420124089345	0
0	603	4.426401941291	0
0	606	4.476165102981	0
0	609	4.546403663512	0
0	612	4.569336282508	0
0	615	4.578464872064	0
0	618	4.607700677123	0
0	621	4.621007158887	0
0	624	4.72477242234	0
0	627	4.751482542325	0
0	630	4.759101057053	0
0	633	4.764936137199	0
0	636	4.800674305018	0
0	639	4.82081516399	0
0	642	4.822958909208	2
0	645	4.875730754063	0
0	648	4.895300003095	0
0	651	4.903405373682	0
0	654	4.928729595198	0
0	657	4.92955667735	0
0	660	4.935802897858	0
0	663	4.93582841577	0
0	666	4.94335057335	0
0	669	4.957064257702	0
0	672	4.960950847436	0
0	675	4.986316406075	0
0	678	4.995347800246	0
0	681	5.001463613193	0
0	684	5.036180283269	0
0	687	5.047515203199	0
0	690	5.055556222191	0
0	693	5.069562538294	0
0	696	5.077680671774	0
0	699	5.079834920355	0
0	702	5.085431363667	0
0	705	5.085550601036	0
0	708	5.098985643685	0
0	711	5.102240697621	0
0	714	5.112848709757	0
0	717	5.167095954669	0
0	720	5.169975819298	0
0	723	5.221134439809	0
0	726	5.232113304268	0
0	729	5.246799354068	0
0	732	5.255336285894	0
0	735	5.271843131586	0
0	738	5.278335043136	0
0	741	5.281903719436	0
0	744	5.313751609484	0
0	747	5.331117461483	0
0	750	5.379299393342	0
0	753	5.444223383582	0
0	756	5.488861300517	0
0	759	5.497912075417	0
0	762	5.523128118225	0
0	765	5.591336681088	0
0	768	5.611224412639	0
0	771	5.612374537997	0
0	774	5.682400896307	0
0	777	5.695180787983	0
0	780	5.730356552638	0
0	783	5.753028967836	0
0	786	5.785656827828	0
0	789	5.809308443359	0
0	792	5.811150743672	0
0	795	5.859223731468	0
0	798	5.870156565588	0
0	801	5.875298110023	0
0	804	5.887387064425	0
0	807	5.899439662974	0
0	810	5.915439716261	0
0	813	5.936256372091	0
0	816	5.94662030302	0
0	819	5.985345197097	0
0	822	5.996346013993	0
0	825	6.000901038012	0
0	828	6.001069442416	0
0	831	6.001902487595	0
0	834	6.009444093611	0
0	837	6.02630758076	0
0	840	6.032507219119	0
0	843	6.044803517778	0
0	846	6.050606221846	0
0	849	6.065108937491	0
0	852	6.078312556492	0
0	855	6.078852543048	0
0	858	6.126649456379	0
0	861	6.129778830475	0
0	864	6.1346466057	0
0	867	6.149017584325	0
0	870	6.161458218935	0
0	873	6.184502492473	0
0	876	6.188050850341	0
0	879	6.241573725267	0
0	882	6.265262747649	0
0	885	6.273728984502	0
0	888	6.282286046772	0
0	891	6.282818501954	0
0	894	6.303708715922	0
0	897	6.355491088284	0
0	900	6.420525804815	0
0	903	6.4220488769	0
0	906	6.447148062521	0
0	909	6.559388961829	0
0	912	6.568531736033	0
0	915	6.579327705687	0
0	918	6.643694845727	0
0	921	6.649611909594	0
0	924	6.653544509317	0
0	927	6.70793526303	0
0	930	6.734066004398	0
0	933	6.747343187221	0
0	936	6.763408846175	0
0	939	6.793703512986	0
0	942	6.844125233916	0
0	945	6.856858628197	0
0	948	6.872475457518	0
0	951	6.87577203894	0
0	954	6.88011062718	0
0	957	6.894951156295	0
0	960	6.903505291324	0
0	963	6.926424925076	0
0	966	6.926649317844	0
0	969	6.934263179964	0
0	972	6.94772792398	0
0	975	6.955084729195	0
0	978	7.013155547017	0
0	981	7.014197842591	0
0	984	7.021839306362	0
0	987	7.041102829763	0
0	990	7.045725833159	0
0	993	7.049041436147	0
0	996	7.049365233025	0
0	999	7.060601034016	0
0	1002	7.061612740718	0
0	1005	7.080424630364	0
0	1008	7.102576979436	0
0	1011	7.113574963017	0
0	1014	7.152225992084	0
0	1017	7.176270984531	0
0	1020	7.181092539616	0
0	1023	7.184790005721	0
0	1026	7.212164772582	0
0	1029	7.223992846486	0
0	1032	7.229702319995	0
0	1035	7.238379648421	0
0	1038	7.310497607385	0
0	1041	7.322958909208	2
0	1044	7.35416386216	0
0	1047	7.368009537783	0
0	1050	7.372874303348	0
0	1053	7.37877782816	0
0	1056	7.475314612686	0
0	1059	7.484887754079	0
0	1062	7.502500136151	0
0	1065	7.506943199085	0
0	1068	7.57137796022	0
0	1071	7.576407071015	0
0	1074	7.62424895959	0
0	1077	7.633420252287	0
0	1080	7.689324636245	0
0	1083	7.718927375971	0
0	1086	7.768573944084	0
0	1089	7.775852522673	0
0	1092	7.780324649763	0
0	1095	7.812755357801	0
0	1098	7.821163660056	0
0	1101	7.849213199364	0
0	1104	7.855724641635	0
0	1107	7.869095573249	0
0	1110	7.874920132756	0
0	1113	7.89710280546	0
0	1116	7.942439497402	0
0	1119	7.986189912912	0
0	1122	7.988236959232	0
0	1125	7.990584379062	0
0	1128	8.002518824954	0
0	1131	8.006734851329	0
0	1134	8.010850656871	0
0	1137	8.01824342385	0
0	1140	8.023474092455	0
0	1143	8.033220773704	0
0	1146	8.033824537415	0
0	1149	8.054105092493	0
0	1152	8.062160925334	0
0	1155	8.07837414844	0
0	1158	8.086956484523	0
0	1161	8.105164253107	0
0	1164	8.108225735834	0
0	1167	8.136141906258	0
0	1170	8.151722608181	0
0	1173	8.185902781133	0
0	1176	8.203268320625	0
0	1179	8.217297364072	0
0	1182	8.239344843897	0
0	1185	8.242838291077	0
0	1188	8.273111644527	0
0	1191	8.30312869884	0
0	1194	8.332459733217	0
0	1197	8.359453738203	0
0	1200	8.362592137976	0
0	1203	8.413295177417	0
0	1206	8.420298088109	0
0	1209	8.420602112637	0
0	1212	8.483002987085	0
0	1215	8.49341494008	0
0	1218	8.568454141821	0
0	1221	8.607080044409	0
0	1224	8.641852442036	0
0	1227	8.732637517433	0
0	1230	8.733282410168	0
0	1233	8.739559387043	0
0	1236	8.770837421855	0
0	1239	8.772806844021	0
0	1242	8.781956479606	0
0	1245	8.790607344359	0
0	1248	8.806922231335	0
0	1251	8.854325187812	0
0	1254	8.864424888323	0
0	1257	8.889180014608	0
0	1260	8.901329146606	0
0	1263	8.907141149975	0
0	1266	8.926150393859	0
0	1269	8.944587536156	0
0	1272	8.963564646105	0
0	1275	8.970792202046	0
0	1278	8.979673041916	0
0	1281	8.991908390262	0
0	1284	8.994327697577	0
0	1287	9.014699916868	0
0	1290	9.015534619616	0
0	1293	9.044649773231	0
0	1296	9.050310347603	0
0	1299	9.059380150493	0
0	1302	9.069428032777	0
0	1305	9.075880857604	0
0	1308	9.107546522608	0
0	1311	9.123283531517	0
0	1314	9.12348167859	0
0	1317	9.139268372672	0
0	1320	9.161176139676	0
0	1323	9.200755577301	0
0	1326	9.201254566433	0
0	1329	9.205248505527	0
0	1332	9.210393555788	0
0	1335	9.250448661204	0
0	1338	9.266928257468	0
0	1341	9.272350902809	0
0	1344	9.338861380938	0
0	1347	9.340645192562	0
0	1350	9.399389976355	0
0	1353	9.426263130875	0
0	1356	9.442820204098	0
0	1359	9.486145484588	0
0	1362	9.496974670421	0
0	1365	9.50804783958	0
0	1368	9.531482745706	0
0	1371	9.607523311021	0
0	1374	9.64015456969	0
0	1377	9.649027295643	0
0	1380	9.69537130692	0
0	1383	9.697361513274	0
0	1386	9.706218377222	0
0	1389	9.709713272424	0
0	1392	9.72114397264	0
0	1395	9.77261171583	0
0	1398	9.796165217971	0
0	1401	9.797310819198	0
0	1404	9.801975169126	0
0	1407	9.822958909208	2
0	1410	9.853232115228	0
0	1413	9.861432488264	0
0	1416	9.908028476499	0
0	1419	9.931181569397	0
0	1422	9.93806852419	0
0	1425	9.947667075508	0
0	1428	9.950738232303	0
0	1431	9.960489232	0
0	1434	9.986136807222	0
0	1437	9.992869400001	0

